
     Program PWSCF v.4.3        starts on 14Apr2011 at 16:50:47 

     This program is part of the open-source Quantum ESPRESSO suite
     for quantum simulation of materials; please cite
         "P. Giannozzi et al., J. Phys.:Condens. Matter 21 395502 (2009);
          URL http://www.quantum-espresso.org", 
     in publications or presentations arising from this work. More details at
     http://www.quantum-espresso.org/wiki/index.php/Citing_Quantum-ESPRESSO

     Current dimensions of program PWSCF are:
     Max number of different atomic species (ntypx) = 10
     Max number of k-points (npk) =  40000
     Max angular momentum in pseudopotentials (lmaxx) =  3
     Waiting for input...
 
   Stick Mesh
   ----------
   nst = 15763,  nstw =  1571, nsts =  6301
               n.st   n.stw   n.sts    n.g    n.gw   n.gs
   min       15763    1571    6301  946397   29883  239481
   max       15763    1571    6301  946397   29883  239481
      15763    1571    6301  946397   29883  239481
 


     bravais-lattice index     =            8
     lattice parameter (a_0)   =      24.4266  a.u.
     unit-cell volume          =    8559.6046 (a.u.)^3
     number of atoms/cell      =           12
     number of atomic types    =            2
     number of electrons       =        30.00
     number of Kohn-Sham states=           15
     kinetic-energy cutoff     =      35.0000  Ry
     charge density cutoff     =     350.0000  Ry
     convergence threshold     =      1.0E-08
     mixing beta               =       0.7000
     number of iterations used =            8  plain     mixing
     Exchange-correlation      =  SLA  PW   PBX  PBC (1434)
     EXX-fraction              =        0.00

     celldm(1)=  24.426600  celldm(2)=   0.948940  celldm(3)=   0.618908
     celldm(4)=   0.000000  celldm(5)=   0.000000  celldm(6)=   0.000000

     crystal axes: (cart. coord. in units of a_0)
               a(1) = (   1.000000   0.000000   0.000000 )  
               a(2) = (   0.000000   0.948940   0.000000 )  
               a(3) = (   0.000000   0.000000   0.618908 )  

     reciprocal axes: (cart. coord. in units 2 pi/a_0)
               b(1) = (  1.000000  0.000000  0.000000 )  
               b(2) = (  0.000000  1.053807  0.000000 )  
               b(3) = (  0.000000  0.000000  1.615750 )  


     PseudoPot. # 1 for C  read from file C.pbe-rrkjus-gipaw-dc.UPF
     MD5 check sum: fbcc0d6599cfc7177c0bcbbe11da8107
     Pseudo is Ultrasoft + core correction, Zval =  4.0
     Generated by new atomic code, or converted to UPF format
     Using radial grid of  671 points,  4 beta functions with: 
                l(1) =   0
                l(2) =   0
                l(3) =   1
                l(4) =   1
     Q(r) pseudized with 0 coefficients 


     PseudoPot. # 2 for H  read from file H.pbe-rrkjus-gipaw-dc.UPF
     MD5 check sum: b4181e00b3adbc7cd053471251a73daf
     Pseudo is Ultrasoft, Zval =  1.0
     Generated by new atomic code, or converted to UPF format
     Using radial grid of  581 points,  2 beta functions with: 
                l(1) =   0
                l(2) =   0
     Q(r) pseudized with 0 coefficients 


     atomic species   valence    mass     pseudopotential
        C              4.00    12.00000     C ( 1.00)
        H              1.00     2.00000     H ( 1.00)

      8 Sym.Ops. (with inversion)


   Cartesian axes

     site n.     atom                  positions (a_0 units)
         1           C   tau(  1) = (   0.0000000   0.1076793   0.0000000  )
         2           C   tau(  2) = (   0.0932530   0.0538396   0.0000000  )
         3           C   tau(  3) = (   0.0932530  -0.0538396   0.0000000  )
         4           C   tau(  4) = (   0.0000000  -0.1076793   0.0000000  )
         5           C   tau(  5) = (  -0.0932530  -0.0538396   0.0000000  )
         6           C   tau(  6) = (  -0.0932530   0.0538396   0.0000000  )
         7           H   tau(  7) = (   0.0000000   0.1915227   0.0000000  )
         8           H   tau(  8) = (   0.1658635   0.0957613   0.0000000  )
         9           H   tau(  9) = (   0.1658635  -0.0957613   0.0000000  )
        10           H   tau( 10) = (   0.0000000  -0.1915227   0.0000000  )
        11           H   tau( 11) = (  -0.1658635  -0.0957613   0.0000000  )
        12           H   tau( 12) = (  -0.1658635   0.0957613   0.0000000  )

     number of k points=     1
                       cart. coord. in units 2pi/a_0
        k(    1) = (   0.0000000   0.0000000   0.0000000), wk =   2.0000000

     G cutoff = 5289.7402  ( 946397 G-vectors)     FFT grid: (150,144, 96)
     G cutoff = 2115.8961  ( 239481 G-vectors)  smooth grid: ( 96, 90, 60)

     Largest allocated arrays     est. size (Mb)     dimensions
        Kohn-Sham Wavefunctions         6.84 Mb     (  29883,  15)
        NL pseudopotentials            27.36 Mb     (  29883,  60)
        Each V/rho on FFT grid         31.64 Mb     (2073600)
        Each G-vector array             7.22 Mb     ( 946397)
        G-vector shells                 0.94 Mb     ( 122821)
     Largest temporary arrays     est. size (Mb)     dimensions
        Auxiliary wavefunctions        27.36 Mb     (  29883,  60)
        Each subspace H/S matrix        0.05 Mb     (     60,  60)
        Each <psi_i|beta_j> matrix      0.01 Mb     (     60,  15)
        Arrays for rho mixing         253.12 Mb     (2073600,   8)

     Initial potential from superposition of free atoms

     starting charge   29.99964, renormalised to   30.00000

     negative rho (up, down):  0.164E-04 0.000E+00
     Starting wfc are   60 atomic wfcs

     total cpu time spent up to now is     23.87 secs

     per-process dynamical memory:   470.7 Mb

     Self-consistent Calculation

     iteration #  1     ecut=    35.00 Ry     beta=0.70
     Davidson diagonalization with overlap
     ethr =  1.00E-04,  avg # of iterations =  4.0

     negative rho (up, down):  0.567E-04 0.000E+00

     total cpu time spent up to now is     44.91 secs

     total energy              =     -75.17223920 Ry
     Harris-Foulkes estimate   =     -76.20159461 Ry
     estimated scf accuracy    <       1.54776435 Ry

     iteration #  2     ecut=    35.00 Ry     beta=0.70
     Davidson diagonalization with overlap
     ethr =  5.16E-03,  avg # of iterations =  2.0

     negative rho (up, down):  0.963E-03 0.000E+00

     total cpu time spent up to now is     64.45 secs

     total energy              =     -75.46981556 Ry
     Harris-Foulkes estimate   =     -75.73390577 Ry
     estimated scf accuracy    <       0.45029162 Ry

     iteration #  3     ecut=    35.00 Ry     beta=0.70
     Davidson diagonalization with overlap
     ethr =  1.50E-03,  avg # of iterations =  2.0

     negative rho (up, down):  0.108E-03 0.000E+00

     total cpu time spent up to now is     83.53 secs

     total energy              =     -75.58336886 Ry
     Harris-Foulkes estimate   =     -75.59531518 Ry
     estimated scf accuracy    <       0.02227028 Ry

     iteration #  4     ecut=    35.00 Ry     beta=0.70
     Davidson diagonalization with overlap
     ethr =  7.42E-05,  avg # of iterations =  2.0

     negative rho (up, down):  0.104E-03 0.000E+00

     total cpu time spent up to now is    104.94 secs

     total energy              =     -75.58840440 Ry
     Harris-Foulkes estimate   =     -75.58840861 Ry
     estimated scf accuracy    <       0.00013009 Ry

     iteration #  5     ecut=    35.00 Ry     beta=0.70
     Davidson diagonalization with overlap
     ethr =  4.34E-07,  avg # of iterations =  3.0

     negative rho (up, down):  0.103E-03 0.000E+00

     total cpu time spent up to now is    129.42 secs

     total energy              =     -75.58846479 Ry
     Harris-Foulkes estimate   =     -75.58847977 Ry
     estimated scf accuracy    <       0.00003829 Ry

     iteration #  6     ecut=    35.00 Ry     beta=0.70
     Davidson diagonalization with overlap
     ethr =  1.28E-07,  avg # of iterations =  2.0

     negative rho (up, down):  0.103E-03 0.000E+00

     total cpu time spent up to now is    148.96 secs

     total energy              =     -75.58847116 Ry
     Harris-Foulkes estimate   =     -75.58847122 Ry
     estimated scf accuracy    <       0.00000038 Ry

     iteration #  7     ecut=    35.00 Ry     beta=0.70
     Davidson diagonalization with overlap
     ethr =  1.26E-09,  avg # of iterations =  2.0

     negative rho (up, down):  0.103E-03 0.000E+00

     total cpu time spent up to now is    168.12 secs

     total energy              =     -75.58847123 Ry
     Harris-Foulkes estimate   =     -75.58847127 Ry
     estimated scf accuracy    <       0.00000006 Ry

     iteration #  8     ecut=    35.00 Ry     beta=0.70
     Davidson diagonalization with overlap
     ethr =  1.88E-10,  avg # of iterations =  2.0

     negative rho (up, down):  0.103E-03 0.000E+00

     total cpu time spent up to now is    186.79 secs

     End of self-consistent calculation

          k = 0.0000 0.0000 0.0000 ( 29883 PWs)   bands (ev):

   -20.6808 -17.8778 -17.8778 -14.2616 -14.2613 -12.3512 -10.6052 -10.3422
    -9.6531  -9.6523  -8.5211  -7.6424  -7.6423  -5.7702  -5.7702

!    total energy              =     -75.58847125 Ry
     Harris-Foulkes estimate   =     -75.58847125 Ry
     estimated scf accuracy    <          2.2E-09 Ry

     The total energy is the sum of the following terms:

     one-electron contribution =    -291.34200537 Ry
     hartree contribution      =     149.34498570 Ry
     xc contribution           =     -25.45040163 Ry
     ewald contribution        =      91.85895005 Ry

     convergence has been achieved in   8 iterations

     Forces acting on atoms (Ry/au):


     negative rho (up, down):  0.103E-03 0.000E+00
     atom   1 type  1   force =     0.00000000   -0.00440819    0.00000000
     atom   2 type  1   force =    -0.00374470   -0.00164925    0.00000000
     atom   3 type  1   force =    -0.00374470    0.00164925    0.00000000
     atom   4 type  1   force =     0.00000000    0.00440819    0.00000000
     atom   5 type  1   force =     0.00374470    0.00164925    0.00000000
     atom   6 type  1   force =     0.00374470   -0.00164925    0.00000000
     atom   7 type  2   force =     0.00000000    0.01182528    0.00000000
     atom   8 type  2   force =     0.01020928    0.00581781    0.00000000
     atom   9 type  2   force =     0.01020928   -0.00581781    0.00000000
     atom  10 type  2   force =     0.00000000   -0.01182528    0.00000000
     atom  11 type  2   force =    -0.01020928   -0.00581781    0.00000000
     atom  12 type  2   force =    -0.01020928    0.00581781    0.00000000

     Total force =     0.030624     Total SCF correction =     0.000093

     Writing output data file benzene.save
 
     init_run     :     19.56s CPU     23.79s WALL (       1 calls)
     electrons    :    148.28s CPU    162.92s WALL (       1 calls)
     forces       :     23.31s CPU     23.96s WALL (       1 calls)

     Called by init_run:
     wfcinit      :      3.91s CPU      5.54s WALL (       1 calls)
     potinit      :      4.61s CPU      4.99s WALL (       1 calls)

     Called by electrons:
     c_bands      :     26.62s CPU     29.14s WALL (       8 calls)
     sum_band     :     47.15s CPU     50.52s WALL (       8 calls)
     v_of_rho     :     18.06s CPU     20.17s WALL (       9 calls)
     newd         :     58.63s CPU     65.95s WALL (       9 calls)
     mix_rho      :      3.04s CPU      3.28s WALL (       8 calls)

     Called by c_bands:
     init_us_2    :      0.72s CPU      0.97s WALL (      17 calls)
     cegterg      :     25.60s CPU     27.89s WALL (       8 calls)

     Called by *egterg:
     h_psi        :     25.69s CPU     28.88s WALL (      28 calls)
     s_psi        :      0.90s CPU      1.02s WALL (      28 calls)
     g_psi        :      0.19s CPU      0.19s WALL (      19 calls)
     cdiaghg      :      0.00s CPU      0.02s WALL (      27 calls)

     Called by h_psi:
     add_vuspsi   :      0.92s CPU      0.96s WALL (      28 calls)

     General routines
     calbec       :      1.21s CPU      1.31s WALL (      37 calls)
     fft          :     18.47s CPU     19.85s WALL (     151 calls)
     ffts         :      0.49s CPU      0.58s WALL (      17 calls)
     fftw         :     20.14s CPU     22.88s WALL (     978 calls)
     interpolate  :      3.21s CPU      3.79s WALL (      17 calls)
     davcio       :      0.01s CPU      0.06s WALL (       8 calls)
 
 
     PWSCF        :  3m11.33s CPU     3m31.00s WALL

 
   This run was terminated on:  16:54:18  14Apr2011            

=------------------------------------------------------------------------------=
   JOB DONE.
=------------------------------------------------------------------------------=
