
     Program PWSCF v.6.beta (svn rev. 12871M) starts on 29Aug2016 at 11:45:30 

     This program is part of the open-source Quantum ESPRESSO suite
     for quantum simulation of materials; please cite
         "P. Giannozzi et al., J. Phys.:Condens. Matter 21 395502 (2009);
          URL http://www.quantum-espresso.org", 
     in publications or presentations arising from this work. More details at
     http://www.quantum-espresso.org/quote
 
           HOST :    @host@
           ARCH :    x86_64
             CC :    icc
            CPP :    cpp
            F90 :    mpif90
            F77 :    ifort
         DFLAGS :    -D__INTEL -D__DFTI -D__MPI -D__PARA -D__SCALAPACK
      BLAS LIBS :    -L/opt/intel/xe2016/mkl/lib/intel64 -lmkl_intel_lp64  -lmkl_sequential -lmkl_core
    LAPACK LIBS :    
       FFT LIBS :    
      MASS LIBS :    

     Parallel version (MPI), running on     4 processors
     R & G space division:  proc/nbgrp/npool/nimage =       4
     Waiting for input...
     Reading input from standard input

     Current dimensions of program PWSCF are:
     Max number of different atomic species (ntypx) = 10
     Max number of k-points (npk) =  40000
     Max angular momentum in pseudopotentials (lmaxx) =  3

     Subspace diagonalization in iterative solution of the eigenvalue problem:
     a serial algorithm will be used

 
     Parallelization info
     --------------------
     sticks:   dense  smooth     PW     G-vecs:    dense   smooth      PW
     Min        3940    1574    392               236599    59870    7470
     Max        3941    1576    393               236600    59871    7471
     Sum       15763    6301   1571               946397   239481   29883
 


     bravais-lattice index     =            8
     lattice parameter (alat)  =      24.4266  a.u.
     unit-cell volume          =    8559.6046 (a.u.)^3
     number of atoms/cell      =           12
     number of atomic types    =            2
     number of electrons       =        30.00
     number of Kohn-Sham states=           15
     kinetic-energy cutoff     =      35.0000  Ry
     charge density cutoff     =     350.0000  Ry
     convergence threshold     =      1.0E-08
     mixing beta               =       0.7000
     number of iterations used =            8  plain     mixing
     Exchange-correlation      =  SLA  PW   PBX  PBC ( 1  4  3  4 0 0)

     celldm(1)=  24.426600  celldm(2)=   0.948940  celldm(3)=   0.618908
     celldm(4)=   0.000000  celldm(5)=   0.000000  celldm(6)=   0.000000

     crystal axes: (cart. coord. in units of alat)
               a(1) = (   1.000000   0.000000   0.000000 )  
               a(2) = (   0.000000   0.948940   0.000000 )  
               a(3) = (   0.000000   0.000000   0.618908 )  

     reciprocal axes: (cart. coord. in units 2 pi/alat)
               b(1) = (  1.000000  0.000000  0.000000 )  
               b(2) = (  0.000000  1.053807  0.000000 )  
               b(3) = (  0.000000  0.000000  1.615750 )  


     PseudoPot. # 1 for C  read from file:
     ./pseudo/C.pbe-rrkjus-gipaw-dc.UPF
     MD5 check sum: fbcc0d6599cfc7177c0bcbbe11da8107
     Pseudo is Ultrasoft + core correction, Zval =  4.0
     Generated by new atomic code, or converted to UPF format
     Using radial grid of  671 points,  4 beta functions with: 
                l(1) =   0
                l(2) =   0
                l(3) =   1
                l(4) =   1
     Q(r) pseudized with 0 coefficients 


     PseudoPot. # 2 for H  read from file:
     ./pseudo/H.pbe-rrkjus-gipaw-dc.UPF
     MD5 check sum: b4181e00b3adbc7cd053471251a73daf
     Pseudo is Ultrasoft, Zval =  1.0
     Generated by new atomic code, or converted to UPF format
     Using radial grid of  581 points,  2 beta functions with: 
                l(1) =   0
                l(2) =   0
     Q(r) pseudized with 0 coefficients 


     atomic species   valence    mass     pseudopotential
        C              4.00    12.00000     C ( 1.00)
        H              1.00     2.00000     H ( 1.00)

      8 Sym. Ops., with inversion, found



   Cartesian axes

     site n.     atom                  positions (alat units)
         1           C   tau(   1) = (   0.0000000   0.1076793   0.0000000  )
         2           C   tau(   2) = (   0.0932530   0.0538396   0.0000000  )
         3           C   tau(   3) = (   0.0932530  -0.0538396   0.0000000  )
         4           C   tau(   4) = (   0.0000000  -0.1076793   0.0000000  )
         5           C   tau(   5) = (  -0.0932530  -0.0538396   0.0000000  )
         6           C   tau(   6) = (  -0.0932530   0.0538396   0.0000000  )
         7           H   tau(   7) = (   0.0000000   0.1915227   0.0000000  )
         8           H   tau(   8) = (   0.1658635   0.0957613   0.0000000  )
         9           H   tau(   9) = (   0.1658635  -0.0957613   0.0000000  )
        10           H   tau(  10) = (   0.0000000  -0.1915227   0.0000000  )
        11           H   tau(  11) = (  -0.1658635  -0.0957613   0.0000000  )
        12           H   tau(  12) = (  -0.1658635   0.0957613   0.0000000  )

     number of k points=     1
                       cart. coord. in units 2pi/alat
        k(    1) = (   0.0000000   0.0000000   0.0000000), wk =   2.0000000

     Dense  grid:   946397 G-vectors     FFT dimensions: ( 150, 144,  96)

     Smooth grid:   239481 G-vectors     FFT dimensions: (  96,  90,  60)

     Estimated max dynamical RAM per process >     155.01Mb

     Estimated total allocated dynamical RAM >     620.05Mb

     Initial potential from superposition of free atoms

     starting charge   29.99964, renormalised to   30.00000

     negative rho (up, down):  1.636E-05 0.000E+00
     Starting wfc are   60 randomized atomic wfcs

     total cpu time spent up to now is        3.5 secs

     per-process dynamical memory:   150.8 Mb

     Self-consistent Calculation

     iteration #  1     ecut=    35.00 Ry     beta=0.70
     Davidson diagonalization with overlap
     ethr =  1.00E-04,  avg # of iterations =  4.0

     negative rho (up, down):  5.650E-05 0.000E+00

     total cpu time spent up to now is        5.5 secs

     total energy              =     -75.17264596 Ry
     Harris-Foulkes estimate   =     -76.20158946 Ry
     estimated scf accuracy    <       1.54726390 Ry

     iteration #  2     ecut=    35.00 Ry     beta=0.70
     Davidson diagonalization with overlap
     ethr =  5.16E-03,  avg # of iterations =  2.0

     negative rho (up, down):  9.604E-04 0.000E+00

     total cpu time spent up to now is        7.6 secs

     total energy              =     -75.47000828 Ry
     Harris-Foulkes estimate   =     -75.73364178 Ry
     estimated scf accuracy    <       0.44943203 Ry

     iteration #  3     ecut=    35.00 Ry     beta=0.70
     Davidson diagonalization with overlap
     ethr =  1.50E-03,  avg # of iterations =  2.0

     negative rho (up, down):  1.073E-04 0.000E+00

     total cpu time spent up to now is        9.4 secs

     total energy              =     -75.58336556 Ry
     Harris-Foulkes estimate   =     -75.59531739 Ry
     estimated scf accuracy    <       0.02227670 Ry

     iteration #  4     ecut=    35.00 Ry     beta=0.70
     Davidson diagonalization with overlap
     ethr =  7.43E-05,  avg # of iterations =  2.0

     negative rho (up, down):  1.041E-04 0.000E+00

     total cpu time spent up to now is       11.2 secs

     total energy              =     -75.58840437 Ry
     Harris-Foulkes estimate   =     -75.58840864 Ry
     estimated scf accuracy    <       0.00013029 Ry

     iteration #  5     ecut=    35.00 Ry     beta=0.70
     Davidson diagonalization with overlap
     ethr =  4.34E-07,  avg # of iterations =  3.0

     negative rho (up, down):  1.032E-04 0.000E+00

     total cpu time spent up to now is       13.1 secs

     total energy              =     -75.58846478 Ry
     Harris-Foulkes estimate   =     -75.58847977 Ry
     estimated scf accuracy    <       0.00003832 Ry

     iteration #  6     ecut=    35.00 Ry     beta=0.70
     Davidson diagonalization with overlap
     ethr =  1.28E-07,  avg # of iterations =  2.0

     negative rho (up, down):  1.025E-04 0.000E+00

     total cpu time spent up to now is       14.9 secs

     total energy              =     -75.58847116 Ry
     Harris-Foulkes estimate   =     -75.58847122 Ry
     estimated scf accuracy    <       0.00000038 Ry

     iteration #  7     ecut=    35.00 Ry     beta=0.70
     Davidson diagonalization with overlap
     ethr =  1.26E-09,  avg # of iterations =  2.0

     negative rho (up, down):  1.026E-04 0.000E+00

     total cpu time spent up to now is       16.7 secs

     total energy              =     -75.58847123 Ry
     Harris-Foulkes estimate   =     -75.58847127 Ry
     estimated scf accuracy    <       0.00000006 Ry

     iteration #  8     ecut=    35.00 Ry     beta=0.70
     Davidson diagonalization with overlap
     ethr =  1.89E-10,  avg # of iterations =  2.0

     negative rho (up, down):  1.026E-04 0.000E+00

     total cpu time spent up to now is       18.4 secs

     End of self-consistent calculation

          k = 0.0000 0.0000 0.0000 ( 29883 PWs)   bands (ev):

   -20.6808 -17.8778 -17.8778 -14.2616 -14.2613 -12.3512 -10.6051 -10.3422
    -9.6531  -9.6523  -8.5211  -7.6424  -7.6423  -5.7702  -5.7702

     highest occupied level (ev):    -5.7702

!    total energy              =     -75.58847125 Ry
     Harris-Foulkes estimate   =     -75.58847124 Ry
     estimated scf accuracy    <          2.4E-09 Ry

     The total energy is the sum of the following terms:

     one-electron contribution =    -291.34196812 Ry
     hartree contribution      =     149.34494325 Ry
     xc contribution           =     -25.45039643 Ry
     ewald contribution        =      91.85895005 Ry

     convergence has been achieved in   8 iterations

     negative rho (up, down):  1.026E-04 0.000E+00

     Forces acting on atoms (Ry/au):

     atom    1 type  1   force =     0.00000000   -0.00440722    0.00000000
     atom    2 type  1   force =    -0.00374364   -0.00164878    0.00000000
     atom    3 type  1   force =    -0.00374364    0.00164878    0.00000000
     atom    4 type  1   force =     0.00000000    0.00440722    0.00000000
     atom    5 type  1   force =     0.00374364    0.00164878    0.00000000
     atom    6 type  1   force =     0.00374364   -0.00164878    0.00000000
     atom    7 type  2   force =     0.00000000    0.01182559    0.00000000
     atom    8 type  2   force =     0.01020945    0.00581787   -0.00000000
     atom    9 type  2   force =     0.01020945   -0.00581787    0.00000000
     atom   10 type  2   force =     0.00000000   -0.01182559    0.00000000
     atom   11 type  2   force =    -0.01020945   -0.00581787   -0.00000000
     atom   12 type  2   force =    -0.01020945    0.00581787    0.00000000

     Total force =     0.030623     Total SCF correction =     0.000097

     Writing output data file benzene.save
 
     init_run     :      3.40s CPU      3.52s WALL (       1 calls)
     electrons    :     14.19s CPU     14.96s WALL (       1 calls)
     forces       :      2.38s CPU      2.46s WALL (       1 calls)

     Called by init_run:
     wfcinit      :      0.41s CPU      0.41s WALL (       1 calls)
     potinit      :      1.15s CPU      1.20s WALL (       1 calls)

     Called by electrons:
     c_bands      :      2.77s CPU      2.80s WALL (       8 calls)
     sum_band     :      4.93s CPU      5.31s WALL (       8 calls)
     v_of_rho     :      3.66s CPU      3.74s WALL (       9 calls)
     newd         :      2.40s CPU      2.75s WALL (       9 calls)
     mix_rho      :      0.63s CPU      0.63s WALL (       8 calls)

     Called by c_bands:
     init_us_2    :      0.12s CPU      0.11s WALL (      17 calls)
     cegterg      :      2.64s CPU      2.67s WALL (       8 calls)

     Called by sum_band:
     sum_band:bec :      0.00s CPU      0.00s WALL (       8 calls)
     addusdens    :      3.36s CPU      3.75s WALL (       8 calls)

     Called by *egterg:
     h_psi        :      2.66s CPU      2.65s WALL (      28 calls)
     s_psi        :      0.09s CPU      0.10s WALL (      28 calls)
     g_psi        :      0.01s CPU      0.01s WALL (      19 calls)
     cdiaghg      :      0.01s CPU      0.03s WALL (      27 calls)

     Called by h_psi:
     h_psi:pot    :      2.64s CPU      2.62s WALL (      28 calls)
     h_psi:calbec :      0.08s CPU      0.08s WALL (      28 calls)
     add_vuspsi   :      0.12s CPU      0.10s WALL (      28 calls)

     General routines
     calbec       :      0.10s CPU      0.11s WALL (      40 calls)
     fft          :      3.76s CPU      3.82s WALL (     151 calls)
     ffts         :      0.07s CPU      0.09s WALL (      17 calls)
     fftw         :      1.82s CPU      1.83s WALL (     978 calls)
     interpolate  :      0.58s CPU      0.61s WALL (      17 calls)
     davcio       :      0.00s CPU      0.00s WALL (       1 calls)
 
     Parallel routines
     fft_scatter  :      2.99s CPU      2.96s WALL (    1146 calls)
 
     PWSCF        :    20.09s CPU        21.06s WALL

 
   This run was terminated on:  11:45:51  29Aug2016            

=------------------------------------------------------------------------------=
   JOB DONE.
=------------------------------------------------------------------------------=
