
     Program PWSCF v.6.3rc starts on 28Jun2018 at 14:24:41 

     This program is part of the open-source Quantum ESPRESSO suite
     for quantum simulation of materials; please cite
         "P. Giannozzi et al., J. Phys.:Condens. Matter 21 395502 (2009);
         "P. Giannozzi et al., J. Phys.:Condens. Matter 29 465901 (2017);
          URL http://www.quantum-espresso.org", 
     in publications or presentations arising from this work. More details at
     http://www.quantum-espresso.org/quote

     Parallel version (MPI), running on     4 processors

     MPI processes distributed on     1 nodes
     R & G space division:  proc/nbgrp/npool/nimage =       4
     Waiting for input...
     Reading input from standard input

     Current dimensions of program PWSCF are:
     Max number of different atomic species (ntypx) = 10
     Max number of k-points (npk) =  40000
     Max angular momentum in pseudopotentials (lmaxx) =  3
     WARNING: atomic wfc #  1 for atom type 1 has zero norm
     WARNING: atomic wfc #  3 for atom type 1 has zero norm
     WARNING: atomic wfc #  5 for atom type 1 has zero norm

     Subspace diagonalization in iterative solution of the eigenvalue problem:
     a serial algorithm will be used

 
     Parallelization info
     --------------------
     sticks:   dense  smooth     PW     G-vecs:    dense   smooth      PW
     Min         806     806    201                30272    30272    3778
     Max         807     807    202                30274    30274    3781
     Sum        3225    3225    805               121093   121093   15117
 


     bravais-lattice index     =           11
     lattice parameter (alat)  =      17.1190  a.u.
     unit-cell volume          =    3539.6771 (a.u.)^3
     number of atoms/cell      =           17
     number of atomic types    =            3
     number of electrons       =        69.00
     number of Kohn-Sham states=           42
     kinetic-energy cutoff     =      40.0000  Ry
     charge density cutoff     =     160.0000  Ry
     convergence threshold     =      2.0E-06
     mixing beta               =       0.2000
     number of iterations used =            8  plain     mixing
     Exchange-correlation      =  SLA  PW   PBX  PBC ( 1  4  3  4 0 0)

     celldm(1)=  17.119029  celldm(2)=   1.405188  celldm(3)=   1.004204
     celldm(4)=   0.000000  celldm(5)=   0.000000  celldm(6)=   0.000000

     crystal axes: (cart. coord. in units of alat)
               a(1) = (   0.500000   0.702594   0.502102 )  
               a(2) = (  -0.500000   0.702594   0.502102 )  
               a(3) = (  -0.500000  -0.702594   0.502102 )  

     reciprocal axes: (cart. coord. in units 2 pi/alat)
               b(1) = (  1.000000  0.000000  0.995814 )  
               b(2) = ( -1.000000  0.711648  0.000000 )  
               b(3) = (  0.000000 -0.711648  0.995814 )  


     PseudoPot. # 1 for K  read from file:
     ./pseudo/K.pbe-tm-gipaw-dc.UPF
     MD5 check sum: c108e8aa63257e1c2f6d9350885f3507
     Pseudo is Norm-conserving + core correction, Zval =  1.0
     Generated using "atomic" code by A. Dal Corso v.6.2 svn rev. 13949:13950
     Using radial grid of 1555 points,  2 beta functions with: 
                l(1) =   2
                l(2) =   1

     PseudoPot. # 2 for Cl read from file:
     ./pseudo/Cl.pbe-tm-gipaw.UPF
     MD5 check sum: 6263502ce953d769893a136fffc16e2a
     Pseudo is Norm-conserving, Zval =  7.0
     Generated by new atomic code, or converted to UPF format
     Using radial grid of 1157 points,  2 beta functions with: 
                l(1) =   0
                l(2) =   1

     PseudoPot. # 3 for O  read from file:
     ./pseudo/O.pbe-tm-new-gipaw-dc.UPF
     MD5 check sum: cd70c9dcf1f7d755502eb127a1501eea
     Pseudo is Norm-conserving, Zval =  6.0
     Generated by new atomic code, or converted to UPF format
     Using radial grid of 1469 points,  1 beta functions with: 
                l(1) =   0

     atomic species   valence    mass     pseudopotential
        K              1.00    39.10000     K ( 1.00)
        Cl             7.00    35.45000     Cl( 1.00)
        O              6.00    16.00000     O ( 1.00)

     Starting magnetic structure 
     atomic species   magnetization
        K            0.000
        Cl           0.000
        O            0.400

      8 Sym. Ops., with inversion, found


                                    s                        frac. trans.

      isym =  1     identity                                     

 cryst.   s( 1) = (     1          0          0      )
                  (     0          1          0      )
                  (     0          0          1      )

 cart.    s( 1) = (  1.0000000  0.0000000  0.0000000 )
                  (  0.0000000  1.0000000  0.0000000 )
                  (  0.0000000  0.0000000  1.0000000 )


      isym =  2     180 deg rotation - cart. axis [0,0,1]        

 cryst.   s( 2) = (     0          0          1      )
                  (     1         -1          1      )
                  (     1          0          0      )

 cart.    s( 2) = ( -1.0000000  0.0000000  0.0000000 )
                  (  0.0000000 -1.0000000  0.0000000 )
                  (  0.0000000  0.0000000  1.0000000 )


      isym =  3     180 deg rotation - cart. axis [0,1,0]        

 cryst.   s( 3) = (    -1          1         -1      )
                  (     0          0         -1      )
                  (     0         -1          0      )

 cart.    s( 3) = ( -1.0000000  0.0000000  0.0000000 )
                  (  0.0000000  1.0000000  0.0000000 )
                  (  0.0000000  0.0000000 -1.0000000 )


      isym =  4     180 deg rotation - cart. axis [1,0,0]        

 cryst.   s( 4) = (     0         -1          0      )
                  (    -1          0          0      )
                  (    -1          1         -1      )

 cart.    s( 4) = (  1.0000000  0.0000000  0.0000000 )
                  (  0.0000000 -1.0000000  0.0000000 )
                  (  0.0000000  0.0000000 -1.0000000 )


      isym =  5     inversion                                    

 cryst.   s( 5) = (    -1          0          0      )
                  (     0         -1          0      )
                  (     0          0         -1      )

 cart.    s( 5) = ( -1.0000000  0.0000000  0.0000000 )
                  (  0.0000000 -1.0000000  0.0000000 )
                  (  0.0000000  0.0000000 -1.0000000 )


      isym =  6     inv. 180 deg rotation - cart. axis [0,0,1]   

 cryst.   s( 6) = (     0          0         -1      )
                  (    -1          1         -1      )
                  (    -1          0          0      )

 cart.    s( 6) = (  1.0000000  0.0000000  0.0000000 )
                  (  0.0000000  1.0000000  0.0000000 )
                  (  0.0000000  0.0000000 -1.0000000 )


      isym =  7     inv. 180 deg rotation - cart. axis [0,1,0]   

 cryst.   s( 7) = (     1         -1          1      )
                  (     0          0          1      )
                  (     0          1          0      )

 cart.    s( 7) = (  1.0000000  0.0000000  0.0000000 )
                  (  0.0000000 -1.0000000  0.0000000 )
                  (  0.0000000  0.0000000  1.0000000 )


      isym =  8     inv. 180 deg rotation - cart. axis [1,0,0]   

 cryst.   s( 8) = (     0          1          0      )
                  (     1          0          0      )
                  (     1         -1          1      )

 cart.    s( 8) = ( -1.0000000  0.0000000  0.0000000 )
                  (  0.0000000  1.0000000  0.0000000 )
                  (  0.0000000  0.0000000  1.0000000 )


     point group D_2h (mmm) 
     there are  8 classes
     the character table:

       E     C2    C2'   C2''  i     s_v   s_v'  s_v''
A_g    1.00  1.00  1.00  1.00  1.00  1.00  1.00  1.00
B_1g   1.00  1.00 -1.00 -1.00  1.00  1.00 -1.00 -1.00
B_2g   1.00 -1.00  1.00 -1.00  1.00 -1.00  1.00 -1.00
B_3g   1.00 -1.00 -1.00  1.00  1.00 -1.00 -1.00  1.00
A_u    1.00  1.00  1.00  1.00 -1.00 -1.00 -1.00 -1.00
B_1u   1.00  1.00 -1.00 -1.00 -1.00 -1.00  1.00  1.00
B_2u   1.00 -1.00  1.00 -1.00 -1.00  1.00 -1.00  1.00
B_3u   1.00 -1.00 -1.00  1.00 -1.00  1.00  1.00 -1.00

     the symmetry operations in each class and the name of the first element:

     E        1
          identity                                               
     C2       2
          180 deg rotation - cart. axis [0,0,1]                  
     C2'      4
          180 deg rotation - cart. axis [1,0,0]                  
     C2''     3
          180 deg rotation - cart. axis [0,1,0]                  
     i        5
          inversion                                              
     s_v      6
          inv. 180 deg rotation - cart. axis [0,0,1]             
     s_v'     8
          inv. 180 deg rotation - cart. axis [1,0,0]             
     s_v''    7
          inv. 180 deg rotation - cart. axis [0,1,0]             

   Cartesian axes

     site n.     atom                  positions (alat units)
         1           Cl  tau(   1) = (   0.2500000   0.3512971   0.2510509  )
         2           Cl  tau(   2) = (  -0.2500000  -0.3512971   0.2510509  )
         3           Cl  tau(   3) = (  -0.2500000   0.3512971   0.7531527  )
         4           Cl  tau(   4) = (  -0.2500000   0.3512971   0.2510509  )
         5           Cl  tau(   5) = (   0.0000000   0.0000000   0.5021018  )
         6           Cl  tau(   6) = (   0.0000000   0.7025941   0.5021018  )
         7           Cl  tau(   7) = (  -0.5000000   0.0000000   0.5021018  )
         8           K   tau(   8) = (   0.0000000   0.3501729   0.5021018  )
         9           K   tau(   9) = (  -0.5000000   0.3524212   1.0042036  )
        10           K   tau(  10) = (  -0.5000000   0.3607118   0.5021018  )
        11           K   tau(  11) = (  -0.5000000  -0.3607118   0.5021018  )
        12           K   tau(  12) = (  -0.2516000  -0.0000000   0.2532601  )
        13           K   tau(  13) = (  -0.2484000   0.7025941   0.7553619  )
        14           K   tau(  14) = (  -0.2484000   0.7025941   1.2530452  )
        15           K   tau(  15) = (  -0.2516000   0.0000000   0.7509434  )
        16           O   tau(  16) = (   0.0000000   0.0000000   0.0751144  )
        17           O   tau(  17) = (   0.0000000   0.0000000   0.9290891  )

   Crystallographic axes

     site n.     atom                  positions (cryst. coord.)
         1           Cl  tau(   1) = (  0.5000000 -0.0000000  0.0000000  )
         2           Cl  tau(   2) = (  0.0000000  0.0000000  0.5000000  )
         3           Cl  tau(   3) = (  0.5000000  0.5000000  0.5000000  )
         4           Cl  tau(   4) = (  0.0000000  0.5000000  0.0000000  )
         5           Cl  tau(   5) = (  0.5000000  0.0000000  0.5000000  )
         6           Cl  tau(   6) = (  0.5000000  0.5000000  0.0000000  )
         7           Cl  tau(   7) = (  0.0000000  0.5000000  0.5000000  )
         8           K   tau(   8) = (  0.5000000  0.2492000  0.2508000  )
         9           K   tau(   9) = (  0.5000000  0.7508000  0.7492000  )
        10           K   tau(  10) = (  0.0000000  0.7567000  0.2433000  )
        11           K   tau(  11) = (  0.0000000  0.2433000  0.7567000  )
        12           K   tau(  12) = (  0.0006000  0.2516000  0.2522000  )
        13           K   tau(  13) = (  0.5038000  0.7484000  0.2522000  )
        14           K   tau(  14) = (  0.9994000  0.7484000  0.7478000  )
        15           K   tau(  15) = (  0.4962000  0.2516000  0.7478000  )
        16           O   tau(  16) = (  0.0748000  0.0000000  0.0748000  )
        17           O   tau(  17) = (  0.9252000  0.0000000  0.9252000  )

     number of k points=     1  gaussian smearing, width (Ry)=  0.0100
                       cart. coord. in units 2pi/alat
        k(    1) = (   0.0000000   0.0000000   0.0000000), wk =   1.0000000

                       cryst. coord.
        k(    1) = (   0.0000000   0.0000000   0.0000000), wk =   1.0000000

     Dense  grid:   121093 G-vectors     FFT dimensions: (  72,  72,  72)

     Dynamical RAM for                 wfc:       2.42 MB

     Dynamical RAM for     wfc (w. buffer):       7.27 MB

     Dynamical RAM for           str. fact:       1.39 MB

     Dynamical RAM for           local pot:       0.00 MB

     Dynamical RAM for          nlocal pot:       5.42 MB

     Dynamical RAM for                qrad:       1.18 MB

     Dynamical RAM for          rho,v,vnew:       7.04 MB

     Dynamical RAM for               rhoin:       2.35 MB

     Dynamical RAM for            rho*nmix:      14.78 MB

     Dynamical RAM for           G-vectors:       1.96 MB

     Dynamical RAM for          h,s,v(r/c):       1.29 MB

     Dynamical RAM for          <psi|beta>:       0.06 MB

     Dynamical RAM for                 psi:       9.69 MB

     Dynamical RAM for                hpsi:       9.69 MB

     Dynamical RAM for      wfcinit/wfcrot:      13.09 MB

     Estimated static dynamical RAM per process >      47.51 MB

     Estimated max dynamical RAM per process >      68.25 MB

     Estimated total dynamical RAM >     272.99 MB
     Generating pointlists ...
     new r_m :   0.1272 (alat units)  2.1770 (a.u.) for type    1
     new r_m :   0.1444 (alat units)  2.4728 (a.u.) for type    2
     new r_m :   0.0620 (alat units)  1.0609 (a.u.) for type    3

     Initial potential from superposition of free atoms

     starting charge   65.08235, renormalised to   69.00000
     Starting wfcs are  111 randomized atomic wfcs

     total cpu time spent up to now is        2.5 secs

     Self-consistent Calculation

     iteration #  1     ecut=    40.00 Ry     beta= 0.20
     Davidson diagonalization with overlap
     ethr =  1.00E-02,  avg # of iterations =  3.0

     total cpu time spent up to now is        3.9 secs

     total energy              =    -306.10960348 Ry
     Harris-Foulkes estimate   =    -308.63030421 Ry
     estimated scf accuracy    <       7.85089601 Ry

     total magnetization       =     0.30 Bohr mag/cell
     absolute magnetization    =     1.04 Bohr mag/cell

     iteration #  2     ecut=    40.00 Ry     beta= 0.20
     Davidson diagonalization with overlap
     ethr =  1.00E-02,  avg # of iterations =  3.5

     total cpu time spent up to now is        5.0 secs

     total energy              =    -307.55431585 Ry
     Harris-Foulkes estimate   =    -307.57474247 Ry
     estimated scf accuracy    <       0.51743720 Ry

     total magnetization       =     1.00 Bohr mag/cell
     absolute magnetization    =     1.28 Bohr mag/cell

     iteration #  3     ecut=    40.00 Ry     beta= 0.20
     Davidson diagonalization with overlap
     ethr =  7.50E-04,  avg # of iterations =  3.0

     total cpu time spent up to now is        6.2 secs

     total energy              =    -307.65137244 Ry
     Harris-Foulkes estimate   =    -307.62251282 Ry
     estimated scf accuracy    <       0.24936510 Ry

     total magnetization       =     1.00 Bohr mag/cell
     absolute magnetization    =     1.23 Bohr mag/cell

     iteration #  4     ecut=    40.00 Ry     beta= 0.20
     Davidson diagonalization with overlap
     ethr =  3.61E-04,  avg # of iterations =  1.5

     total cpu time spent up to now is        7.2 secs

     total energy              =    -307.70437352 Ry
     Harris-Foulkes estimate   =    -307.66665281 Ry
     estimated scf accuracy    <       0.07130297 Ry

     total magnetization       =     1.00 Bohr mag/cell
     absolute magnetization    =     1.13 Bohr mag/cell

     iteration #  5     ecut=    40.00 Ry     beta= 0.20
     Davidson diagonalization with overlap
     ethr =  1.03E-04,  avg # of iterations =  4.0

     total cpu time spent up to now is        8.5 secs

     total energy              =    -307.71091253 Ry
     Harris-Foulkes estimate   =    -307.71606432 Ry
     estimated scf accuracy    <       0.01912439 Ry

     total magnetization       =     1.00 Bohr mag/cell
     absolute magnetization    =     1.07 Bohr mag/cell

     iteration #  6     ecut=    40.00 Ry     beta= 0.20
     Davidson diagonalization with overlap
     ethr =  2.77E-05,  avg # of iterations =  4.0

     total cpu time spent up to now is        9.7 secs

     total energy              =    -307.71613347 Ry
     Harris-Foulkes estimate   =    -307.71654665 Ry
     estimated scf accuracy    <       0.00343890 Ry

     total magnetization       =     1.00 Bohr mag/cell
     absolute magnetization    =     1.04 Bohr mag/cell

     iteration #  7     ecut=    40.00 Ry     beta= 0.20
     Davidson diagonalization with overlap
     ethr =  4.98E-06,  avg # of iterations =  6.0

     total cpu time spent up to now is       10.9 secs

     total energy              =    -307.71652197 Ry
     Harris-Foulkes estimate   =    -307.71636587 Ry
     estimated scf accuracy    <       0.00171136 Ry

     total magnetization       =     1.00 Bohr mag/cell
     absolute magnetization    =     1.04 Bohr mag/cell

     iteration #  8     ecut=    40.00 Ry     beta= 0.20
     Davidson diagonalization with overlap
     ethr =  2.48E-06,  avg # of iterations =  3.5

     total cpu time spent up to now is       12.1 secs

     total energy              =    -307.71707778 Ry
     Harris-Foulkes estimate   =    -307.71691358 Ry
     estimated scf accuracy    <       0.00111798 Ry

     total magnetization       =     1.00 Bohr mag/cell
     absolute magnetization    =     1.04 Bohr mag/cell

     iteration #  9     ecut=    40.00 Ry     beta= 0.20
     Davidson diagonalization with overlap
     ethr =  1.62E-06,  avg # of iterations =  1.0

     total cpu time spent up to now is       13.1 secs

     total energy              =    -307.71725358 Ry
     Harris-Foulkes estimate   =    -307.71710111 Ry
     estimated scf accuracy    <       0.00116399 Ry

     total magnetization       =     1.00 Bohr mag/cell
     absolute magnetization    =     1.04 Bohr mag/cell

     iteration # 10     ecut=    40.00 Ry     beta= 0.20
     Davidson diagonalization with overlap
     ethr =  1.62E-06,  avg # of iterations =  2.5

     total cpu time spent up to now is       14.2 secs

     total energy              =    -307.71785328 Ry
     Harris-Foulkes estimate   =    -307.71781468 Ry
     estimated scf accuracy    <       0.00063685 Ry

     total magnetization       =     1.00 Bohr mag/cell
     absolute magnetization    =     1.04 Bohr mag/cell

     iteration # 11     ecut=    40.00 Ry     beta= 0.20
     Davidson diagonalization with overlap
     ethr =  9.23E-07,  avg # of iterations =  3.0

     total cpu time spent up to now is       15.3 secs

     total energy              =    -307.71810295 Ry
     Harris-Foulkes estimate   =    -307.71804396 Ry
     estimated scf accuracy    <       0.00008715 Ry

     total magnetization       =     1.00 Bohr mag/cell
     absolute magnetization    =     1.05 Bohr mag/cell

     iteration # 12     ecut=    40.00 Ry     beta= 0.20
     Davidson diagonalization with overlap
     ethr =  1.26E-07,  avg # of iterations =  4.0

     total cpu time spent up to now is       16.4 secs

     total energy              =    -307.71812415 Ry
     Harris-Foulkes estimate   =    -307.71821704 Ry
     estimated scf accuracy    <       0.00001707 Ry

     total magnetization       =     1.00 Bohr mag/cell
     absolute magnetization    =     1.05 Bohr mag/cell

     iteration # 13     ecut=    40.00 Ry     beta= 0.20
     Davidson diagonalization with overlap
     ethr =  2.47E-08,  avg # of iterations =  3.5

     total cpu time spent up to now is       17.6 secs

     total energy              =    -307.71807146 Ry
     Harris-Foulkes estimate   =    -307.71815506 Ry
     estimated scf accuracy    <       0.00007372 Ry

     total magnetization       =     1.00 Bohr mag/cell
     absolute magnetization    =     1.05 Bohr mag/cell

     iteration # 14     ecut=    40.00 Ry     beta= 0.20
     Davidson diagonalization with overlap
     ethr =  2.47E-08,  avg # of iterations =  5.0

     total cpu time spent up to now is       18.9 secs

     total energy              =    -307.71820651 Ry
     Harris-Foulkes estimate   =    -307.71820117 Ry
     estimated scf accuracy    <       0.00004553 Ry

     total magnetization       =     1.00 Bohr mag/cell
     absolute magnetization    =     1.06 Bohr mag/cell

     iteration # 15     ecut=    40.00 Ry     beta= 0.20
     Davidson diagonalization with overlap
     ethr =  2.47E-08,  avg # of iterations =  3.0
 
     Magnetic moment per site:
     atom:    1    charge:    6.7620    magn:   -0.0002    constr:    0.0000
     atom:    2    charge:    6.7620    magn:   -0.0002    constr:    0.0000
     atom:    3    charge:    6.7620    magn:   -0.0002    constr:    0.0000
     atom:    4    charge:    6.7620    magn:   -0.0002    constr:    0.0000
     atom:    5    charge:    6.7609    magn:   -0.0004    constr:    0.0000
     atom:    6    charge:    6.7622    magn:   -0.0004    constr:    0.0000
     atom:    7    charge:    6.7609    magn:   -0.0002    constr:    0.0000
     atom:    8    charge:    0.0632    magn:   -0.0000    constr:    0.0000
     atom:    9    charge:    0.0632    magn:   -0.0000    constr:    0.0000
     atom:   10    charge:    0.0573    magn:   -0.0004    constr:    0.0000
     atom:   11    charge:    0.0573    magn:   -0.0004    constr:    0.0000
     atom:   12    charge:    0.0650    magn:    0.0025    constr:    0.0000
     atom:   13    charge:    0.0650    magn:    0.0025    constr:    0.0000
     atom:   14    charge:    0.0650    magn:    0.0025    constr:    0.0000
     atom:   15    charge:    0.0650    magn:    0.0025    constr:    0.0000
     atom:   16    charge:    3.4735    magn:    0.3072    constr:    0.0000
     atom:   17    charge:    3.4735    magn:    0.3072    constr:    0.0000

     total cpu time spent up to now is       20.0 secs

     End of self-consistent calculation

 ------ SPIN UP ------------


          k = 0.0000 0.0000 0.0000 ( 15117 PWs)   bands (ev):

   -23.2633 -14.8530 -13.7828 -13.7071 -13.6606 -13.6431 -13.6423 -13.6208
   -13.6051  -5.9782  -5.5559  -4.5538  -2.7363  -2.6493  -2.6227  -2.6098
    -2.3919  -2.3446  -2.3349  -2.0476  -2.0435  -2.0358  -2.0250  -1.9987
    -1.9884  -1.9700  -1.9661  -1.9575  -1.9487  -1.9450  -1.7805  -1.7594
    -1.7581  -0.7707   0.3073   3.2229   4.8323   4.8394   4.9878   5.5548
     5.6900   5.8517

     occupation numbers 
     1.0000   1.0000   1.0000   1.0000   1.0000   1.0000   1.0000   1.0000
     1.0000   1.0000   1.0000   1.0000   1.0000   1.0000   1.0000   1.0000
     1.0000   1.0000   1.0000   1.0000   1.0000   1.0000   1.0000   1.0000
     1.0000   1.0000   1.0000   1.0000   1.0000   1.0000   1.0000   1.0000
     1.0000   1.0000   1.0000   0.0000   0.0000   0.0000   0.0000   0.0000
     0.0000   0.0000

 ------ SPIN DOWN ----------


          k = 0.0000 0.0000 0.0000 ( 15117 PWs)   bands (ev):

   -22.5984 -13.9601 -13.7832 -13.7074 -13.6609 -13.6434 -13.6425 -13.6211
   -13.6056  -5.6025  -4.2777  -4.0730  -2.7363  -2.6489  -2.6098  -2.6074
    -2.3871  -2.3424  -2.3346  -2.0479  -2.0436  -2.0360  -2.0252  -1.9990
    -1.9886  -1.9700  -1.9663  -1.9577  -1.9489  -1.9455  -1.7805  -1.7580
    -1.7579   0.6453   1.0296   3.2389   4.8385   4.8472   4.9951   5.5758
     5.6957   5.8967

     occupation numbers 
     1.0000   1.0000   1.0000   1.0000   1.0000   1.0000   1.0000   1.0000
     1.0000   1.0000   1.0000   1.0000   1.0000   1.0000   1.0000   1.0000
     1.0000   1.0000   1.0000   1.0000   1.0000   1.0000   1.0000   1.0000
     1.0000   1.0000   1.0000   1.0000   1.0000   1.0000   1.0000   1.0000
     1.0000   0.9771   0.0229   0.0000   0.0000   0.0000   0.0000   0.0000
     0.0000   0.0000

     the Fermi energy is     0.8375 ev

!    total energy              =    -307.71821916 Ry
     Harris-Foulkes estimate   =    -307.71821922 Ry
     estimated scf accuracy    <       0.00000080 Ry

     The total energy is the sum of the following terms:

     one-electron contribution =    -158.33053038 Ry
     hartree contribution      =     102.71407176 Ry
     xc contribution           =     -87.85129146 Ry
     ewald contribution        =    -164.24970148 Ry
     smearing contrib. (-TS)   =      -0.00076760 Ry

     total magnetization       =     1.00 Bohr mag/cell
     absolute magnetization    =     1.06 Bohr mag/cell

     convergence has been achieved in  15 iterations

     Forces acting on atoms (cartesian axes, Ry/au):

     atom    1 type  2   force =     0.00000000   -0.00000000    0.00000000
     atom    2 type  2   force =     0.00000000    0.00000000    0.00000000
     atom    3 type  2   force =    -0.00000000    0.00000000    0.00000000
     atom    4 type  2   force =     0.00000000    0.00000000    0.00000000
     atom    5 type  2   force =     0.00000000    0.00000000    0.00000000
     atom    6 type  2   force =    -0.00000000    0.00000000    0.00000000
     atom    7 type  2   force =     0.00000000    0.00000000    0.00000000
     atom    8 type  1   force =     0.00000000   -0.00078677    0.00000000
     atom    9 type  1   force =     0.00000000    0.00078677    0.00000000
     atom   10 type  1   force =     0.00000000    0.00524858    0.00000000
     atom   11 type  1   force =     0.00000000   -0.00524858    0.00000000
     atom   12 type  1   force =    -0.00101169   -0.00000000    0.00287450
     atom   13 type  1   force =     0.00101169    0.00000000    0.00287450
     atom   14 type  1   force =     0.00101169   -0.00000000   -0.00287450
     atom   15 type  1   force =    -0.00101169    0.00000000   -0.00287450
     atom   16 type  3   force =     0.00000000    0.00000000    0.04953342
     atom   17 type  3   force =     0.00000000    0.00000000   -0.04953342
     The non-local contrib.  to forces
     atom    1 type  2   force =    -0.00000000   -0.00000000   -0.00000000
     atom    2 type  2   force =    -0.00000000    0.00000000   -0.00000000
     atom    3 type  2   force =     0.00000000   -0.00000000    0.00000000
     atom    4 type  2   force =     0.00000000   -0.00000000    0.00000000
     atom    5 type  2   force =     0.00000000   -0.00000000    0.00000000
     atom    6 type  2   force =     0.00000000    0.00000000    0.00000000
     atom    7 type  2   force =     0.00000000    0.00000000    0.00000000
     atom    8 type  1   force =     0.00000000   -0.00026364    0.00000000
     atom    9 type  1   force =     0.00000000    0.00026364    0.00000000
     atom   10 type  1   force =     0.00000000   -0.00002312    0.00000000
     atom   11 type  1   force =     0.00000000    0.00002312    0.00000000
     atom   12 type  1   force =    -0.00020607   -0.00000000    0.00054908
     atom   13 type  1   force =     0.00020607    0.00000000    0.00054908
     atom   14 type  1   force =     0.00020607    0.00000000   -0.00054908
     atom   15 type  1   force =    -0.00020607    0.00000000   -0.00054908
     atom   16 type  3   force =     0.00000000    0.00000000   -2.39324114
     atom   17 type  3   force =     0.00000000   -0.00000000    2.39324114
     The ionic contribution  to forces
     atom    1 type  2   force =     0.00000000   -0.00000000    0.00000000
     atom    2 type  2   force =     0.00000000   -0.00000000    0.00000000
     atom    3 type  2   force =    -0.00000000   -0.00000000   -0.00000000
     atom    4 type  2   force =     0.00000000    0.00000000    0.00000000
     atom    5 type  2   force =    -0.00000000    0.00000000   -0.00000000
     atom    6 type  2   force =     0.00000000    0.00000000    0.00000000
     atom    7 type  2   force =     0.00000000   -0.00000000   -0.00000000
     atom    8 type  1   force =     0.00000000    0.02061119   -0.00000000
     atom    9 type  1   force =     0.00000000   -0.02061119   -0.00000000
     atom   10 type  1   force =     0.00000000   -0.20614450   -0.00000000
     atom   11 type  1   force =    -0.00000000    0.20614450    0.00000000
     atom   12 type  1   force =    -0.18885493    0.00000000    0.12389565
     atom   13 type  1   force =     0.18885493   -0.00000000    0.12389565
     atom   14 type  1   force =     0.18885493   -0.00000000   -0.12389565
     atom   15 type  1   force =    -0.18885493    0.00000000   -0.12389565
     atom   16 type  3   force =    -0.00000000   -0.00000000    9.64976347
     atom   17 type  3   force =    -0.00000000    0.00000000   -9.64976347
     The local contribution  to forces
     atom    1 type  2   force =     0.00000000    0.00000000   -0.00000000
     atom    2 type  2   force =    -0.00000000   -0.00000000   -0.00000000
     atom    3 type  2   force =    -0.00000000    0.00000000    0.00000000
     atom    4 type  2   force =    -0.00000000    0.00000000   -0.00000000
     atom    5 type  2   force =    -0.00000000   -0.00000000   -0.00000000
     atom    6 type  2   force =    -0.00000000    0.00000000    0.00000000
     atom    7 type  2   force =    -0.00000000   -0.00000000    0.00000000
     atom    8 type  1   force =    -0.00000000   -0.02053762   -0.00000000
     atom    9 type  1   force =     0.00000000    0.02053762   -0.00000000
     atom   10 type  1   force =    -0.00000000    0.21484164   -0.00000000
     atom   11 type  1   force =    -0.00000000   -0.21484164    0.00000000
     atom   12 type  1   force =     0.18647375    0.00000000   -0.12253108
     atom   13 type  1   force =    -0.18647375    0.00000000   -0.12253108
     atom   14 type  1   force =    -0.18647375   -0.00000000    0.12253108
     atom   15 type  1   force =     0.18647375   -0.00000000    0.12253108
     atom   16 type  3   force =    -0.00000000   -0.00000000   -7.20722653
     atom   17 type  3   force =     0.00000000    0.00000000    7.20722653
     The core correction contribution to forces
     atom    1 type  2   force =     0.00000000    0.00000000    0.00000000
     atom    2 type  2   force =     0.00000000    0.00000000    0.00000000
     atom    3 type  2   force =     0.00000000    0.00000000    0.00000000
     atom    4 type  2   force =     0.00000000    0.00000000    0.00000000
     atom    5 type  2   force =     0.00000000    0.00000000    0.00000000
     atom    6 type  2   force =     0.00000000    0.00000000    0.00000000
     atom    7 type  2   force =     0.00000000    0.00000000    0.00000000
     atom    8 type  1   force =     0.00000000   -0.00059217    0.00000000
     atom    9 type  1   force =    -0.00000000    0.00059217   -0.00000000
     atom   10 type  1   force =     0.00000000   -0.00342405   -0.00000000
     atom   11 type  1   force =    -0.00000000    0.00342405   -0.00000000
     atom   12 type  1   force =     0.00157194   -0.00000000    0.00095787
     atom   13 type  1   force =    -0.00157194    0.00000000    0.00095787
     atom   14 type  1   force =    -0.00157194    0.00000000   -0.00095787
     atom   15 type  1   force =     0.00157194   -0.00000000   -0.00095787
     atom   16 type  3   force =     0.00000000    0.00000000    0.00000000
     atom   17 type  3   force =     0.00000000    0.00000000    0.00000000
     The Hubbard contrib.    to forces
     atom    1 type  2   force =     0.00000000    0.00000000    0.00000000
     atom    2 type  2   force =     0.00000000    0.00000000    0.00000000
     atom    3 type  2   force =     0.00000000    0.00000000    0.00000000
     atom    4 type  2   force =     0.00000000    0.00000000    0.00000000
     atom    5 type  2   force =     0.00000000    0.00000000    0.00000000
     atom    6 type  2   force =     0.00000000    0.00000000    0.00000000
     atom    7 type  2   force =     0.00000000    0.00000000    0.00000000
     atom    8 type  1   force =     0.00000000    0.00000000    0.00000000
     atom    9 type  1   force =     0.00000000    0.00000000    0.00000000
     atom   10 type  1   force =     0.00000000    0.00000000    0.00000000
     atom   11 type  1   force =     0.00000000    0.00000000    0.00000000
     atom   12 type  1   force =     0.00000000    0.00000000    0.00000000
     atom   13 type  1   force =     0.00000000    0.00000000    0.00000000
     atom   14 type  1   force =     0.00000000    0.00000000    0.00000000
     atom   15 type  1   force =     0.00000000    0.00000000    0.00000000
     atom   16 type  3   force =     0.00000000    0.00000000    0.00000000
     atom   17 type  3   force =     0.00000000    0.00000000    0.00000000
     The SCF correction term to forces
     atom    1 type  2   force =    -0.00000000   -0.00000000    0.00000000
     atom    2 type  2   force =    -0.00000000   -0.00000000   -0.00000000
     atom    3 type  2   force =    -0.00000000    0.00000000   -0.00000000
     atom    4 type  2   force =    -0.00000000   -0.00000000   -0.00000000
     atom    5 type  2   force =    -0.00000000    0.00000000   -0.00000000
     atom    6 type  2   force =    -0.00000000    0.00000000   -0.00000000
     atom    7 type  2   force =    -0.00000000    0.00000000   -0.00000000
     atom    8 type  1   force =     0.00000000   -0.00000453   -0.00000000
     atom    9 type  1   force =    -0.00000000    0.00000453    0.00000000
     atom   10 type  1   force =    -0.00000000   -0.00000138   -0.00000000
     atom   11 type  1   force =     0.00000000    0.00000138    0.00000000
     atom   12 type  1   force =     0.00000363   -0.00000000    0.00000298
     atom   13 type  1   force =    -0.00000363    0.00000000    0.00000298
     atom   14 type  1   force =    -0.00000363    0.00000000   -0.00000298
     atom   15 type  1   force =     0.00000363   -0.00000000   -0.00000298
     atom   16 type  3   force =    -0.00000000   -0.00000000    0.00023761
     atom   17 type  3   force =    -0.00000000    0.00000000   -0.00023761

     Total force =     0.070715     Total SCF correction =     0.000336


     Computing stress (Cartesian axis) and pressure

          total   stress  (Ry/bohr**3)                   (kbar)     P=  -57.58
  -0.00038872  -0.00000000  -0.00000000        -57.18     -0.00     -0.00
  -0.00000000  -0.00045883   0.00000000         -0.00    -67.50      0.00
  -0.00000000  -0.00000000  -0.00032663         -0.00     -0.00    -48.05

     kinetic stress (kbar)   3399.43      0.00     -0.00
                                0.00   3532.43      0.00
                               -0.00      0.00   3252.96

     local   stress (kbar)  -4258.62      0.00      0.00
                                0.00  -4496.42     -0.00
                                0.00     -0.00  -5824.55

     nonloc. stress (kbar)   3037.47      0.00      0.00
                                0.00   3034.23      0.00
                                0.00      0.00   3038.43

     hartree stress (kbar)   1194.50     -0.00     -0.00
                               -0.00   1269.62     -0.00
                               -0.00     -0.00   1804.57

     exc-cor stress (kbar)    453.72      0.00     -0.00
                                0.00    454.20      0.00
                               -0.00      0.00    456.99

     corecor stress (kbar)  -1232.61      0.00      0.00
                                0.00  -1231.54     -0.00
                                0.00     -0.00  -1231.50

     ewald   stress (kbar)  -2651.07     -0.00      0.00
                               -0.00  -2630.01     -0.00
                                0.00     -0.00  -1544.95

     hubbard stress (kbar)      0.00      0.00      0.00
                                0.00      0.00      0.00
                                0.00      0.00      0.00

     london  stress (kbar)      0.00      0.00      0.00
                                0.00      0.00      0.00
                                0.00      0.00      0.00

     DFT-D3  stress (kbar)      0.00      0.00      0.00
                                0.00      0.00      0.00
                                0.00      0.00      0.00

     XDM     stress (kbar)      0.00      0.00      0.00
                                0.00      0.00      0.00
                                0.00      0.00      0.00

     dft-nl  stress (kbar)      0.00      0.00      0.00
                                0.00      0.00      0.00
                                0.00      0.00      0.00

     TS-vdW  stress (kbar)      0.00      0.00      0.00
                                0.00      0.00      0.00
                                0.00      0.00      0.00



     Writing output data file superox.save/
 
     init_run     :      2.05s CPU      2.09s WALL (       1 calls)
     electrons    :     17.06s CPU     17.43s WALL (       1 calls)
     forces       :      0.82s CPU      0.83s WALL (       1 calls)
     stress       :      1.61s CPU      1.62s WALL (       1 calls)

     Called by init_run:
     wfcinit      :      0.95s CPU      0.96s WALL (       1 calls)
     wfcinit:atom :      0.01s CPU      0.01s WALL (       2 calls)
     wfcinit:wfcr :      0.90s CPU      0.92s WALL (       2 calls)
     potinit      :      0.50s CPU      0.51s WALL (       1 calls)
     hinit0       :      0.54s CPU      0.54s WALL (       1 calls)

     Called by electrons:
     c_bands      :     11.19s CPU     11.42s WALL (      15 calls)
     sum_band     :      3.29s CPU      3.37s WALL (      15 calls)
     v_of_rho     :      2.02s CPU      2.07s WALL (      16 calls)
     v_h          :      0.07s CPU      0.09s WALL (      16 calls)
     v_xc         :      2.19s CPU      2.23s WALL (      18 calls)
     mix_rho      :      0.60s CPU      0.61s WALL (      15 calls)

     Called by c_bands:
     init_us_2    :      0.21s CPU      0.23s WALL (      66 calls)
     cegterg      :     10.78s CPU     11.00s WALL (      30 calls)

     Called by sum_band:

     Called by *egterg:
     h_psi        :     10.16s CPU     10.39s WALL (     133 calls)
     g_psi        :      0.03s CPU      0.04s WALL (     101 calls)
     cdiaghg      :      0.31s CPU      0.31s WALL (     131 calls)
     cegterg:over :      0.44s CPU      0.42s WALL (     101 calls)
     cegterg:upda :      0.41s CPU      0.42s WALL (     101 calls)
     cegterg:last :      0.11s CPU      0.11s WALL (      30 calls)

     Called by h_psi:
     h_psi:pot    :     10.07s CPU     10.30s WALL (     133 calls)
     h_psi:calbec :      0.33s CPU      0.36s WALL (     133 calls)
     vloc_psi     :      9.41s CPU      9.60s WALL (     133 calls)
     add_vuspsi   :      0.34s CPU      0.35s WALL (     133 calls)

     General routines
     calbec       :      0.36s CPU      0.39s WALL (     143 calls)
     fft          :      0.97s CPU      1.08s WALL (     346 calls)
     ffts         :      0.10s CPU      0.10s WALL (      30 calls)
     fftw         :      9.05s CPU      9.32s WALL (    7614 calls)
 
     Parallel routines
     fft_scatt_xy :      2.05s CPU      2.37s WALL (    7990 calls)
     fft_scatt_yz :      1.92s CPU      1.91s WALL (    7990 calls)
 
     PWSCF        :    22.02s CPU        22.45s WALL

 
   This run was terminated on:  14:25: 3  28Jun2018            

=------------------------------------------------------------------------------=
   JOB DONE.
=------------------------------------------------------------------------------=
