
     Program PWSCF v.4.3        starts on 14Apr2011 at 15:41:45 

     This program is part of the open-source Quantum ESPRESSO suite
     for quantum simulation of materials; please cite
         "P. Giannozzi et al., J. Phys.:Condens. Matter 21 395502 (2009);
          URL http://www.quantum-espresso.org", 
     in publications or presentations arising from this work. More details at
     http://www.quantum-espresso.org/wiki/index.php/Citing_Quantum-ESPRESSO

     Current dimensions of program PWSCF are:
     Max number of different atomic species (ntypx) = 10
     Max number of k-points (npk) =  40000
     Max angular momentum in pseudopotentials (lmaxx) =  3
     Waiting for input...
 
   Stick Mesh
   ----------
   nst = 16213,  nstw =  4037, nsts = 16213
               n.st   n.stw   n.sts    n.g    n.gw   n.gs
   min       16213    4037   16213  987519  123465  987519
   max       16213    4037   16213  987519  123465  987519
      16213    4037   16213  987519  123465  987519
 


     bravais-lattice index     =            8
     lattice parameter (a_0)   =      24.4266  a.u.
     unit-cell volume          =    8559.6046 (a.u.)^3
     number of atoms/cell      =           12
     number of atomic types    =            2
     number of electrons       =        30.00
     number of Kohn-Sham states=           15
     kinetic-energy cutoff     =      90.0000  Ry
     charge density cutoff     =     360.0000  Ry
     convergence threshold     =      1.0E-08
     mixing beta               =       0.7000
     number of iterations used =            8  plain     mixing
     Exchange-correlation      =  SLA  PW   PBX  PBC (1434)
     EXX-fraction              =        0.00

     celldm(1)=  24.426600  celldm(2)=   0.948940  celldm(3)=   0.618908
     celldm(4)=   0.000000  celldm(5)=   0.000000  celldm(6)=   0.000000

     crystal axes: (cart. coord. in units of a_0)
               a(1) = (   1.000000   0.000000   0.000000 )  
               a(2) = (   0.000000   0.948940   0.000000 )  
               a(3) = (   0.000000   0.000000   0.618908 )  

     reciprocal axes: (cart. coord. in units 2 pi/a_0)
               b(1) = (  1.000000  0.000000  0.000000 )  
               b(2) = (  0.000000  1.053807  0.000000 )  
               b(3) = (  0.000000  0.000000  1.615750 )  


     PseudoPot. # 1 for C  read from file C.pbe-tm-gipaw.UPF
     MD5 check sum: 6e4a9b9bc4429ee737bc22471ffa2923
     Pseudo is Norm-conserving, Zval =  4.0
     Generated by new atomic code, or converted to UPF format
     Using radial grid of 1073 points,  1 beta functions with: 
                l(1) =   0

     PseudoPot. # 2 for H  read from file H.pbe-tm-gipaw.UPF
     MD5 check sum: 39a9a69d8410949353303b9fcad9eee2
     Pseudo is Norm-conserving, Zval =  1.0
     Generated by new atomic code, or converted to UPF format
     Using radial grid of  929 points,  0 beta functions with: 

     atomic species   valence    mass     pseudopotential
        C              4.00    12.00000     C ( 1.00)
        H              1.00     2.00000     H ( 1.00)

      8 Sym.Ops. (with inversion)


   Cartesian axes

     site n.     atom                  positions (a_0 units)
         1           C   tau(  1) = (   0.0000000   0.1076793   0.0000000  )
         2           C   tau(  2) = (   0.0932530   0.0538396   0.0000000  )
         3           C   tau(  3) = (   0.0932530  -0.0538396   0.0000000  )
         4           C   tau(  4) = (   0.0000000  -0.1076793   0.0000000  )
         5           C   tau(  5) = (  -0.0932530  -0.0538396   0.0000000  )
         6           C   tau(  6) = (  -0.0932530   0.0538396   0.0000000  )
         7           H   tau(  7) = (   0.0000000   0.1915227   0.0000000  )
         8           H   tau(  8) = (   0.1658635   0.0957613   0.0000000  )
         9           H   tau(  9) = (   0.1658635  -0.0957613   0.0000000  )
        10           H   tau( 10) = (   0.0000000  -0.1915227   0.0000000  )
        11           H   tau( 11) = (  -0.1658635  -0.0957613   0.0000000  )
        12           H   tau( 12) = (  -0.1658635   0.0957613   0.0000000  )

     number of k points=     1
                       cart. coord. in units 2pi/a_0
        k(    1) = (   0.0000000   0.0000000   0.0000000), wk =   2.0000000

     G cutoff = 5440.8757  ( 987519 G-vectors)     FFT grid: (150,144, 96)

     Largest allocated arrays     est. size (Mb)     dimensions
        Kohn-Sham Wavefunctions        28.26 Mb     ( 123465,  15)
        NL pseudopotentials            11.30 Mb     ( 123465,   6)
        Each V/rho on FFT grid         31.64 Mb     (2073600)
        Each G-vector array             7.53 Mb     ( 987519)
        G-vector shells                 0.98 Mb     ( 128089)
     Largest temporary arrays     est. size (Mb)     dimensions
        Auxiliary wavefunctions       113.04 Mb     ( 123465,  60)
        Each subspace H/S matrix        0.05 Mb     (     60,  60)
        Each <psi_i|beta_j> matrix      0.00 Mb     (      6,  15)
        Arrays for rho mixing         253.12 Mb     (2073600,   8)

     Initial potential from superposition of free atoms

     starting charge   24.59975, renormalised to   30.00000

     negative rho (up, down):  0.265E-05 0.000E+00
     Starting wfc are   30 atomic wfcs

     total cpu time spent up to now is     18.62 secs

     per-process dynamical memory:   490.6 Mb

     Self-consistent Calculation

     iteration #  1     ecut=    90.00 Ry     beta=0.70
     Davidson diagonalization with overlap
     ethr =  1.00E-04,  avg # of iterations =  6.0

     total cpu time spent up to now is     41.06 secs

     total energy              =     -69.01026805 Ry
     Harris-Foulkes estimate   =     -78.98570040 Ry
     estimated scf accuracy    <      13.18282169 Ry

     iteration #  2     ecut=    90.00 Ry     beta=0.70
     Davidson diagonalization with overlap
     ethr =  1.00E-02,  avg # of iterations =  3.0

     total cpu time spent up to now is     61.63 secs

     total energy              =     -74.24890082 Ry
     Harris-Foulkes estimate   =     -78.71999839 Ry
     estimated scf accuracy    <       8.12200781 Ry

     iteration #  3     ecut=    90.00 Ry     beta=0.70
     Davidson diagonalization with overlap
     ethr =  1.00E-02,  avg # of iterations =  2.0

     total cpu time spent up to now is     77.62 secs

     total energy              =     -75.30834998 Ry
     Harris-Foulkes estimate   =     -75.45462869 Ry
     estimated scf accuracy    <       0.23161727 Ry

     iteration #  4     ecut=    90.00 Ry     beta=0.70
     Davidson diagonalization with overlap
     ethr =  7.72E-04,  avg # of iterations =  2.0

     total cpu time spent up to now is     93.96 secs

     total energy              =     -75.36821713 Ry
     Harris-Foulkes estimate   =     -75.37991132 Ry
     estimated scf accuracy    <       0.02018095 Ry

     iteration #  5     ecut=    90.00 Ry     beta=0.70
     Davidson diagonalization with overlap
     ethr =  6.73E-05,  avg # of iterations =  2.0

     total cpu time spent up to now is    109.97 secs

     total energy              =     -75.37447880 Ry
     Harris-Foulkes estimate   =     -75.37551149 Ry
     estimated scf accuracy    <       0.00239424 Ry

     iteration #  6     ecut=    90.00 Ry     beta=0.70
     Davidson diagonalization with overlap
     ethr =  7.98E-06,  avg # of iterations =  2.0

     total cpu time spent up to now is    125.61 secs

     total energy              =     -75.37469070 Ry
     Harris-Foulkes estimate   =     -75.37478785 Ry
     estimated scf accuracy    <       0.00016820 Ry

     iteration #  7     ecut=    90.00 Ry     beta=0.70
     Davidson diagonalization with overlap
     ethr =  5.61E-07,  avg # of iterations =  2.0

     total cpu time spent up to now is    141.81 secs

     total energy              =     -75.37474499 Ry
     Harris-Foulkes estimate   =     -75.37475024 Ry
     estimated scf accuracy    <       0.00001060 Ry

     iteration #  8     ecut=    90.00 Ry     beta=0.70
     Davidson diagonalization with overlap
     ethr =  3.53E-08,  avg # of iterations =  2.0

     total cpu time spent up to now is    158.41 secs

     total energy              =     -75.37474747 Ry
     Harris-Foulkes estimate   =     -75.37474742 Ry
     estimated scf accuracy    <       0.00000013 Ry

     iteration #  9     ecut=    90.00 Ry     beta=0.70
     Davidson diagonalization with overlap
     ethr =  4.29E-10,  avg # of iterations =  2.0

     total cpu time spent up to now is    174.97 secs

     total energy              =     -75.37474749 Ry
     Harris-Foulkes estimate   =     -75.37474750 Ry
     estimated scf accuracy    <       0.00000001 Ry

     iteration # 10     ecut=    90.00 Ry     beta=0.70
     Davidson diagonalization with overlap
     ethr =  4.72E-11,  avg # of iterations =  2.0

     total cpu time spent up to now is    189.24 secs

     End of self-consistent calculation

          k = 0.0000 0.0000 0.0000 (123465 PWs)   bands (ev):

   -20.5506 -17.7484 -17.7483 -14.1753 -14.1753 -12.3333 -10.5618 -10.3389
    -9.6513  -9.6511  -8.5023  -7.6547  -7.6545  -5.7600  -5.7600

!    total energy              =     -75.37474749 Ry
     Harris-Foulkes estimate   =     -75.37474749 Ry
     estimated scf accuracy    <          2.3E-10 Ry

     The total energy is the sum of the following terms:

     one-electron contribution =    -291.47118973 Ry
     hartree contribution      =     149.42894109 Ry
     xc contribution           =     -25.19144891 Ry
     ewald contribution        =      91.85895005 Ry

     convergence has been achieved in  10 iterations

     Forces acting on atoms (Ry/au):

     atom   1 type  1   force =     0.00000000    0.01101751    0.00000000
     atom   2 type  1   force =     0.00956330    0.00547669    0.00000000
     atom   3 type  1   force =     0.00956330   -0.00547669    0.00000000
     atom   4 type  1   force =     0.00000000   -0.01101751    0.00000000
     atom   5 type  1   force =    -0.00956330   -0.00547669    0.00000000
     atom   6 type  1   force =    -0.00956330    0.00547669    0.00000000
     atom   7 type  2   force =     0.00000000    0.01087537    0.00000000
     atom   8 type  2   force =     0.00941657    0.00543479    0.00000000
     atom   9 type  2   force =     0.00941657   -0.00543479    0.00000000
     atom  10 type  2   force =     0.00000000   -0.01087537    0.00000000
     atom  11 type  2   force =    -0.00941657   -0.00543479    0.00000000
     atom  12 type  2   force =    -0.00941657    0.00543479    0.00000000

     Total force =     0.037920     Total SCF correction =     0.000007

     Writing output data file benzene.save
 
     init_run     :     17.85s CPU     18.42s WALL (       1 calls)
     electrons    :    166.88s CPU    170.63s WALL (       1 calls)
     forces       :      7.27s CPU      7.28s WALL (       1 calls)

     Called by init_run:
     wfcinit      :      7.22s CPU      7.40s WALL (       1 calls)
     potinit      :      5.76s CPU      5.96s WALL (       1 calls)

     Called by electrons:
     c_bands      :    114.58s CPU    116.62s WALL (      10 calls)
     sum_band     :     22.12s CPU     22.15s WALL (      10 calls)
     v_of_rho     :     24.07s CPU     25.08s WALL (      11 calls)
     mix_rho      :      6.05s CPU      6.24s WALL (      10 calls)

     Called by c_bands:
     init_us_2    :      0.94s CPU      0.93s WALL (      21 calls)
     cegterg      :    114.08s CPU    116.14s WALL (      10 calls)

     Called by *egterg:
     h_psi        :    108.64s CPU    109.13s WALL (      36 calls)
     g_psi        :      1.12s CPU      1.11s WALL (      25 calls)
     cdiaghg      :      0.02s CPU      0.11s WALL (      35 calls)

     Called by h_psi:
     add_vuspsi   :      0.90s CPU      0.84s WALL (      36 calls)

     General routines
     calbec       :      0.74s CPU      0.77s WALL (      37 calls)
     fft          :     17.95s CPU     18.04s WALL (     122 calls)
     fftw         :    106.56s CPU    107.06s WALL (    1146 calls)
     davcio       :      0.00s CPU      0.34s WALL (      10 calls)
 
 
     PWSCF        :  3m12.28s CPU     3m16.82s WALL

 
   This run was terminated on:  15:45: 2  14Apr2011            

=------------------------------------------------------------------------------=
   JOB DONE.
=------------------------------------------------------------------------------=
