
     Program PWSCF v.6.4.1 starts on 29May2019 at 13:34:46 

     This program is part of the open-source Quantum ESPRESSO suite
     for quantum simulation of materials; please cite
         "P. Giannozzi et al., J. Phys.:Condens. Matter 21 395502 (2009);
         "P. Giannozzi et al., J. Phys.:Condens. Matter 29 465901 (2017);
          URL http://www.quantum-espresso.org", 
     in publications or presentations arising from this work. More details at
     http://www.quantum-espresso.org/quote

     Parallel version (MPI), running on     4 processors

     MPI processes distributed on     1 nodes
     R & G space division:  proc/nbgrp/npool/nimage =       4
     Waiting for input...
     Reading input from standard input

     Current dimensions of program PWSCF are:
     Max number of different atomic species (ntypx) = 10
     Max number of k-points (npk) =  40000
     Max angular momentum in pseudopotentials (lmaxx) =  3

     Subspace diagonalization in iterative solution of the eigenvalue problem:
     a serial algorithm will be used

     Message from routine setup:
     DEPRECATED: symmetry with ibrav=0, use correct ibrav instead
 
     Parallelization info
     --------------------
     sticks:   dense  smooth     PW     G-vecs:    dense   smooth      PW
     Min         475     475    133                18414    18414    2747
     Max         476     476    134                18416    18416    2750
     Sum        1903    1903    535                73661    73661   10993
 


     bravais-lattice index     =            0
     lattice parameter (alat)  =       4.6415  a.u.
     unit-cell volume          =     762.0804 (a.u.)^3
     number of atoms/cell      =            9
     number of atomic types    =            2
     number of electrons       =        48.00
     number of Kohn-Sham states=           24
     kinetic-energy cutoff     =      80.0000  Ry
     charge density cutoff     =     320.0000  Ry
     convergence threshold     =      1.0E-10
     mixing beta               =       0.7000
     number of iterations used =            8  plain     mixing
     Exchange-correlation      =  SLA  PW   PBX  PBC ( 1  4  3  4 0 0)

     celldm(1)=   4.641538  celldm(2)=   0.000000  celldm(3)=   0.000000
     celldm(4)=   0.000000  celldm(5)=   0.000000  celldm(6)=   0.000000

     crystal axes: (cart. coord. in units of alat)
               a(1) = (   1.000000  -1.732058   0.000000 )  
               a(2) = (   1.000000   1.732058   0.000000 )  
               a(3) = (   0.000000   0.000000   2.200000 )  

     reciprocal axes: (cart. coord. in units 2 pi/alat)
               b(1) = (  0.500000 -0.288674  0.000000 )  
               b(2) = (  0.500000  0.288674  0.000000 )  
               b(3) = (  0.000000  0.000000  0.454545 )  


     PseudoPot. # 1 for Si read from file:
     ./pseudo/Si.pbe-tm-gipaw.UPF
     MD5 check sum: 744ed8b2dc623e0d56f5dfff7afbe95f
     Pseudo is Norm-conserving, Zval =  4.0
     Generated by new atomic code, or converted to UPF format
     Using radial grid of 1141 points,  2 beta functions with: 
                l(1) =   0
                l(2) =   1

     PseudoPot. # 2 for O  read from file:
     ./pseudo/O.pbe-tm-gipaw.UPF
     MD5 check sum: 12b6f10dd62b8d732352127d12073df4
     Pseudo is Norm-conserving, Zval =  6.0
     Generated by new atomic code, or converted to UPF format
     Using radial grid of 1095 points,  1 beta functions with: 
                l(1) =   0

     atomic species   valence    mass     pseudopotential
        Si             4.00    28.08600     Si( 1.00)
        O              6.00    15.99900     O ( 1.00)

      2 Sym. Ops. (no inversion) found


                                    s                        frac. trans.

      isym =  1     identity                                     

 cryst.   s( 1) = (     1          0          0      )
                  (     0          1          0      )
                  (     0          0          1      )

 cart.    s( 1) = (  1.0000000  0.0000000  0.0000000 )
                  (  0.0000000  1.0000000  0.0000000 )
                  (  0.0000000  0.0000000  1.0000000 )


      isym =  2     180 deg rotation - cart. axis [1,0,0]        

 cryst.   s( 2) = (     0          1          0      )
                  (     1          0          0      )
                  (     0          0         -1      )

 cart.    s( 2) = (  1.0000000  0.0000000  0.0000000 )
                  (  0.0000000 -1.0000000  0.0000000 )
                  (  0.0000000  0.0000000 -1.0000000 )


   Cartesian axes

     site n.     atom                  positions (alat units)
         1           Si  tau(   1) = (   0.4701000  -0.8142405   0.7333333  )
         2           Si  tau(   2) = (   0.4701000   0.8142405   1.4666667  )
         3           Si  tau(   3) = (  -0.9402000   0.0000000   0.0000000  )
         4           O   tau(   4) = (   0.6813000  -0.2537465   0.4716800  )
         5           O   tau(   5) = (  -0.1209000   0.7168988   1.2050133  )
         6           O   tau(   6) = (  -0.5604000  -0.4631523   1.9383467  )
         7           O   tau(   7) = (   0.6813000   0.2537465  -0.4716800  )
         8           O   tau(   8) = (  -0.1209000  -0.7168988   0.9949867  )
         9           O   tau(   9) = (  -0.5604000   0.4631523   0.2616533  )

   Crystallographic axes

     site n.     atom                  positions (cryst. coord.)
         1           Si  tau(   1) = (  0.4701000  0.0000000  0.3333333  )
         2           Si  tau(   2) = (  0.0000000  0.4701000  0.6666667  )
         3           Si  tau(   3) = ( -0.4701000 -0.4701000  0.0000000  )
         4           O   tau(   4) = (  0.4139000  0.2674000  0.2144000  )
         5           O   tau(   5) = ( -0.2674000  0.1465000  0.5477333  )
         6           O   tau(   6) = ( -0.1465000 -0.4139000  0.8810667  )
         7           O   tau(   7) = (  0.2674000  0.4139000 -0.2144000  )
         8           O   tau(   8) = (  0.1465000 -0.2674000  0.4522667  )
         9           O   tau(   9) = ( -0.4139000 -0.1465000  0.1189333  )

     number of k points=    20
                       cart. coord. in units 2pi/alat
        k(    1) = (   0.1250000   0.0000000   0.0568182), wk =   0.1250000
        k(    2) = (   0.1250000   0.0000000   0.1704545), wk =   0.1250000
        k(    3) = (   0.2500000   0.0721685   0.0568182), wk =   0.1250000
        k(    4) = (   0.2500000   0.0721685   0.1704545), wk =   0.1250000
        k(    5) = (  -0.1250000  -0.1443370   0.0568182), wk =   0.1250000
        k(    6) = (  -0.1250000  -0.1443370   0.1704545), wk =   0.1250000
        k(    7) = (   0.0000000  -0.0721685   0.0568182), wk =   0.0625000
        k(    8) = (   0.0000000  -0.0721685   0.1704545), wk =   0.0625000
        k(    9) = (   0.3750000   0.0000000   0.0568182), wk =   0.1250000
        k(   10) = (   0.3750000   0.0000000   0.1704545), wk =   0.1250000
        k(   11) = (   0.0000000  -0.2165054   0.0568182), wk =   0.0625000
        k(   12) = (   0.0000000  -0.2165054   0.1704545), wk =   0.0625000
        k(   13) = (  -0.2500000   0.0721685  -0.0568182), wk =   0.1250000
        k(   14) = (  -0.2500000   0.0721685  -0.1704545), wk =   0.1250000
        k(   15) = (   0.1250000  -0.1443370  -0.0568182), wk =   0.1250000
        k(   16) = (   0.1250000  -0.1443370  -0.1704545), wk =   0.1250000
        k(   17) = (   0.0000000  -0.0721685  -0.0568182), wk =   0.0625000
        k(   18) = (   0.0000000  -0.0721685  -0.1704545), wk =   0.0625000
        k(   19) = (   0.0000000  -0.2165054  -0.0568182), wk =   0.0625000
        k(   20) = (   0.0000000  -0.2165054  -0.1704545), wk =   0.0625000

                       cryst. coord.
        k(    1) = (   0.1250000   0.1250000   0.1250000), wk =   0.1250000
        k(    2) = (   0.1250000   0.1250000   0.3750000), wk =   0.1250000
        k(    3) = (   0.1250000   0.3750000   0.1250000), wk =   0.1250000
        k(    4) = (   0.1250000   0.3750000   0.3750000), wk =   0.1250000
        k(    5) = (   0.1250000  -0.3750000   0.1250000), wk =   0.1250000
        k(    6) = (   0.1250000  -0.3750000   0.3750000), wk =   0.1250000
        k(    7) = (   0.1250000  -0.1250000   0.1250000), wk =   0.0625000
        k(    8) = (   0.1250000  -0.1250000   0.3750000), wk =   0.0625000
        k(    9) = (   0.3750000   0.3750000   0.1250000), wk =   0.1250000
        k(   10) = (   0.3750000   0.3750000   0.3750000), wk =   0.1250000
        k(   11) = (   0.3750000  -0.3750000   0.1250000), wk =   0.0625000
        k(   12) = (   0.3750000  -0.3750000   0.3750000), wk =   0.0625000
        k(   13) = (  -0.3750000  -0.1250000  -0.1250000), wk =   0.1250000
        k(   14) = (  -0.3750000  -0.1250000  -0.3750000), wk =   0.1250000
        k(   15) = (   0.3750000  -0.1250000  -0.1250000), wk =   0.1250000
        k(   16) = (   0.3750000  -0.1250000  -0.3750000), wk =   0.1250000
        k(   17) = (   0.1250000  -0.1250000  -0.1250000), wk =   0.0625000
        k(   18) = (   0.1250000  -0.1250000  -0.3750000), wk =   0.0625000
        k(   19) = (   0.3750000  -0.3750000  -0.1250000), wk =   0.0625000
        k(   20) = (   0.3750000  -0.3750000  -0.3750000), wk =   0.0625000

     Dense  grid:    73661 G-vectors     FFT dimensions: (  54,  54,  60)

     Dynamical RAM for                 wfc:       0.84 MB

     Dynamical RAM for     wfc (w. buffer):      17.70 MB

     Dynamical RAM for           str. fact:       0.56 MB

     Dynamical RAM for           local pot:       0.00 MB

     Dynamical RAM for          nlocal pot:       0.63 MB

     Dynamical RAM for                qrad:       0.18 MB

     Dynamical RAM for          rho,v,vnew:       1.84 MB

     Dynamical RAM for               rhoin:       0.61 MB

     Dynamical RAM for            rho*nmix:       4.50 MB

     Dynamical RAM for           G-vectors:       1.19 MB

     Dynamical RAM for          h,s,v(r/c):       0.42 MB

     Dynamical RAM for          <psi|beta>:       0.01 MB

     Dynamical RAM for                 psi:       3.37 MB

     Dynamical RAM for                hpsi:       3.37 MB

     Dynamical RAM for      wfcinit/wfcrot:       3.64 MB

     Estimated static dynamical RAM per process >      29.74 MB

     Estimated max dynamical RAM per process >      36.91 MB

     Estimated total dynamical RAM >     147.65 MB

     Initial potential from superposition of free atoms

     starting charge   40.41467, renormalised to   48.00000
     Starting wfcs are   51 randomized atomic wfcs

     total cpu time spent up to now is        1.5 secs

     Self-consistent Calculation

     iteration #  1     ecut=    80.00 Ry     beta= 0.70
     Davidson diagonalization with overlap
     ethr =  1.00E-04,  avg # of iterations =  4.0

     total cpu time spent up to now is        4.3 secs

     total energy              =    -216.53320496 Ry
     Harris-Foulkes estimate   =    -216.65725395 Ry
     estimated scf accuracy    <       0.39997739 Ry

     iteration #  2     ecut=    80.00 Ry     beta= 0.70
     Davidson diagonalization with overlap
     ethr =  8.33E-04,  avg # of iterations =  2.0

     total cpu time spent up to now is        6.4 secs

     total energy              =    -216.57540635 Ry
     Harris-Foulkes estimate   =    -216.60885590 Ry
     estimated scf accuracy    <       0.07669669 Ry

     iteration #  3     ecut=    80.00 Ry     beta= 0.70
     Davidson diagonalization with overlap
     ethr =  1.60E-04,  avg # of iterations =  2.0

     total cpu time spent up to now is        8.3 secs

     total energy              =    -216.59327314 Ry
     Harris-Foulkes estimate   =    -216.59751134 Ry
     estimated scf accuracy    <       0.01312912 Ry

     iteration #  4     ecut=    80.00 Ry     beta= 0.70
     Davidson diagonalization with overlap
     ethr =  2.74E-05,  avg # of iterations =  2.0

     total cpu time spent up to now is       10.2 secs

     total energy              =    -216.59574925 Ry
     Harris-Foulkes estimate   =    -216.59571580 Ry
     estimated scf accuracy    <       0.00012049 Ry

     iteration #  5     ecut=    80.00 Ry     beta= 0.70
     Davidson diagonalization with overlap
     ethr =  2.51E-07,  avg # of iterations =  2.0

     total cpu time spent up to now is       12.0 secs

     total energy              =    -216.59579150 Ry
     Harris-Foulkes estimate   =    -216.59578833 Ry
     estimated scf accuracy    <       0.00000380 Ry

     iteration #  6     ecut=    80.00 Ry     beta= 0.70
     Davidson diagonalization with overlap
     ethr =  7.92E-09,  avg # of iterations =  2.0

     total cpu time spent up to now is       13.9 secs

     total energy              =    -216.59579255 Ry
     Harris-Foulkes estimate   =    -216.59579213 Ry
     estimated scf accuracy    <       0.00000033 Ry

     iteration #  7     ecut=    80.00 Ry     beta= 0.70
     Davidson diagonalization with overlap
     ethr =  6.86E-10,  avg # of iterations =  2.0

     total cpu time spent up to now is       15.7 secs

     total energy              =    -216.59579265 Ry
     Harris-Foulkes estimate   =    -216.59579265 Ry
     estimated scf accuracy    <       0.00000002 Ry

     iteration #  8     ecut=    80.00 Ry     beta= 0.70
     Davidson diagonalization with overlap
     ethr =  3.89E-11,  avg # of iterations =  2.0

     total cpu time spent up to now is       17.6 secs

     total energy              =    -216.59579265 Ry
     Harris-Foulkes estimate   =    -216.59579265 Ry
     estimated scf accuracy    <          9.2E-10 Ry

     iteration #  9     ecut=    80.00 Ry     beta= 0.70
     Davidson diagonalization with overlap
     ethr =  1.91E-12,  avg # of iterations =  2.0

     total cpu time spent up to now is       19.5 secs

     End of self-consistent calculation

          k = 0.1250 0.0000 0.0568 (  9223 PWs)   bands (ev):

   -16.5282 -15.4457 -14.9768 -14.4970 -14.4587 -14.4319  -5.9056  -5.0558
    -3.1048  -2.8364  -2.6435  -2.4178  -0.5197  -0.2016   0.0065   0.3489
     0.6361   1.0626   1.1079   1.3859   1.6935   1.8021   2.2549   2.5039

     occupation numbers 
     1.0000   1.0000   1.0000   1.0000   1.0000   1.0000   1.0000   1.0000
     1.0000   1.0000   1.0000   1.0000   1.0000   1.0000   1.0000   1.0000
     1.0000   1.0000   1.0000   1.0000   1.0000   1.0000   1.0000   1.0000

          k = 0.1250 0.0000 0.1705 (  9197 PWs)   bands (ev):

   -16.3134 -15.9075 -14.7220 -14.4935 -14.4617 -14.4284  -6.3285  -4.2412
    -3.5528  -2.8647  -2.7273  -2.2108  -0.4760  -0.1555   0.0526   0.3179
     0.5723   0.9952   1.0933   1.2555   1.5474   2.0397   2.3109   2.4772

     occupation numbers 
     1.0000   1.0000   1.0000   1.0000   1.0000   1.0000   1.0000   1.0000
     1.0000   1.0000   1.0000   1.0000   1.0000   1.0000   1.0000   1.0000
     1.0000   1.0000   1.0000   1.0000   1.0000   1.0000   1.0000   1.0000

          k = 0.2500 0.0722 0.0568 (  9216 PWs)   bands (ev):

   -16.1875 -15.6953 -15.0981 -14.5234 -14.4931 -14.4544  -5.7643  -4.6888
    -3.5130  -2.8243  -2.6631  -2.0922  -0.5232  -0.2757  -0.0718   0.3623
     0.5661   0.8465   0.9865   1.3878   1.6021   1.8682   2.2952   2.5244

     occupation numbers 
     1.0000   1.0000   1.0000   1.0000   1.0000   1.0000   1.0000   1.0000
     1.0000   1.0000   1.0000   1.0000   1.0000   1.0000   1.0000   1.0000
     1.0000   1.0000   1.0000   1.0000   1.0000   1.0000   1.0000   1.0000

          k = 0.2500 0.0722 0.1705 (  9213 PWs)   bands (ev):

   -16.1300 -15.6949 -15.1675 -14.5429 -14.4842 -14.4536  -5.6414  -4.6349
    -3.7955  -2.7429  -2.4149  -2.3787  -0.6185  -0.4510   0.0832   0.4174
     0.6341   0.8952   1.3157   1.4454   1.6803   1.8893   2.0594   2.3472

     occupation numbers 
     1.0000   1.0000   1.0000   1.0000   1.0000   1.0000   1.0000   1.0000
     1.0000   1.0000   1.0000   1.0000   1.0000   1.0000   1.0000   1.0000
     1.0000   1.0000   1.0000   1.0000   1.0000   1.0000   1.0000   1.0000

          k =-0.1250-0.1443 0.0568 (  9215 PWs)   bands (ev):

   -16.3671 -15.5337 -15.0706 -14.5121 -14.4754 -14.4463  -5.8052  -4.8954
    -3.3107  -2.8427  -2.6384  -2.2293  -0.5280  -0.1808  -0.0197   0.2332
     0.5573   0.9564   1.1597   1.3678   1.5965   1.8521   2.2435   2.5443

     occupation numbers 
     1.0000   1.0000   1.0000   1.0000   1.0000   1.0000   1.0000   1.0000
     1.0000   1.0000   1.0000   1.0000   1.0000   1.0000   1.0000   1.0000
     1.0000   1.0000   1.0000   1.0000   1.0000   1.0000   1.0000   1.0000

          k =-0.1250-0.1443 0.1705 (  9207 PWs)   bands (ev):

   -16.2102 -15.8117 -14.9563 -14.5171 -14.4706 -14.4471  -5.9796  -4.4205
    -3.7044  -2.7934  -2.5479  -2.2815  -0.5659  -0.3508   0.1255   0.2682
     0.5717   1.0438   1.2056   1.4185   1.6714   1.8200   2.1717   2.4453

     occupation numbers 
     1.0000   1.0000   1.0000   1.0000   1.0000   1.0000   1.0000   1.0000
     1.0000   1.0000   1.0000   1.0000   1.0000   1.0000   1.0000   1.0000
     1.0000   1.0000   1.0000   1.0000   1.0000   1.0000   1.0000   1.0000

          k = 0.0000-0.0722 0.0568 (  9206 PWs)   bands (ev):

   -16.6171 -15.4203 -14.9048 -14.4797 -14.4453 -14.4224  -6.0062  -5.1076
    -2.9879  -2.8447  -2.6916  -2.4794  -0.4690  -0.2054  -0.0475   0.3020
     0.8675   1.0657   1.1150   1.3775   1.6633   1.9022   2.2505   2.4556

     occupation numbers 
     1.0000   1.0000   1.0000   1.0000   1.0000   1.0000   1.0000   1.0000
     1.0000   1.0000   1.0000   1.0000   1.0000   1.0000   1.0000   1.0000
     1.0000   1.0000   1.0000   1.0000   1.0000   1.0000   1.0000   1.0000

          k = 0.0000-0.0722 0.1705 (  9184 PWs)   bands (ev):

   -16.3817 -15.9525 -14.5823 -14.4720 -14.4629 -14.4123  -6.5367  -4.1464
    -3.4171  -2.9442  -2.8644  -2.1601  -0.3712  -0.0309  -0.0103   0.4077
     0.6124   0.9143   0.9698   1.1507   1.4715   2.1645   2.4132   2.4846

     occupation numbers 
     1.0000   1.0000   1.0000   1.0000   1.0000   1.0000   1.0000   1.0000
     1.0000   1.0000   1.0000   1.0000   1.0000   1.0000   1.0000   1.0000
     1.0000   1.0000   1.0000   1.0000   1.0000   1.0000   1.0000   1.0000

          k = 0.3750 0.0000 0.0568 (  9207 PWs)   bands (ev):

   -16.0615 -15.8041 -15.1285 -14.5214 -14.4977 -14.4578  -5.7748  -4.3966
    -3.8598  -2.7960  -2.6263  -2.0202  -0.4603  -0.2831  -0.1991   0.4865
     0.5748   0.7288   1.0336   1.2938   1.5043   2.0518   2.2054   2.5426

     occupation numbers 
     1.0000   1.0000   1.0000   1.0000   1.0000   1.0000   1.0000   1.0000
     1.0000   1.0000   1.0000   1.0000   1.0000   1.0000   1.0000   1.0000
     1.0000   1.0000   1.0000   1.0000   1.0000   1.0000   1.0000   1.0000

          k = 0.3750 0.0000 0.1705 (  9202 PWs)   bands (ev):

   -16.0944 -15.6136 -15.2828 -14.5459 -14.4981 -14.4634  -5.4306  -4.7385
    -3.9219  -2.6987  -2.4240  -2.3645  -0.6429  -0.3279  -0.0933   0.5477
     0.6445   0.7520   1.4533   1.4882   1.6877   1.9257   1.9862   2.2401

     occupation numbers 
     1.0000   1.0000   1.0000   1.0000   1.0000   1.0000   1.0000   1.0000
     1.0000   1.0000   1.0000   1.0000   1.0000   1.0000   1.0000   1.0000
     1.0000   1.0000   1.0000   1.0000   1.0000   1.0000   1.0000   1.0000

          k = 0.0000-0.2165 0.0568 (  9221 PWs)   bands (ev):

   -16.3013 -15.6022 -15.0631 -14.5209 -14.4886 -14.4486  -5.7743  -4.8571
    -3.3030  -2.8231  -2.7144  -2.1843  -0.5825  -0.2093   0.0272   0.3123
     0.5714   0.8978   0.9682   1.4911   1.6439   1.7454   2.3447   2.4919

     occupation numbers 
     1.0000   1.0000   1.0000   1.0000   1.0000   1.0000   1.0000   1.0000
     1.0000   1.0000   1.0000   1.0000   1.0000   1.0000   1.0000   1.0000
     1.0000   1.0000   1.0000   1.0000   1.0000   1.0000   1.0000   1.0000

          k = 0.0000-0.2165 0.1705 (  9202 PWs)   bands (ev):

   -16.1753 -15.7769 -15.0306 -14.5350 -14.4767 -14.4432  -5.8558  -4.5147
    -3.7009  -2.7845  -2.4676  -2.3548  -0.6048  -0.4233   0.1626   0.3449
     0.6052   1.0045   1.1750   1.4101   1.6527   1.9096   2.1501   2.3876

     occupation numbers 
     1.0000   1.0000   1.0000   1.0000   1.0000   1.0000   1.0000   1.0000
     1.0000   1.0000   1.0000   1.0000   1.0000   1.0000   1.0000   1.0000
     1.0000   1.0000   1.0000   1.0000   1.0000   1.0000   1.0000   1.0000

          k =-0.2500 0.0722-0.0568 (  9216 PWs)   bands (ev):

   -16.1896 -15.6878 -15.1080 -14.5207 -14.4895 -14.4561  -5.7653  -4.6894
    -3.5140  -2.8345  -2.6533  -2.0810  -0.4757  -0.3029  -0.0997   0.2902
     0.6075   0.8217   1.0844   1.3524   1.5683   1.9252   2.2397   2.5488

     occupation numbers 
     1.0000   1.0000   1.0000   1.0000   1.0000   1.0000   1.0000   1.0000
     1.0000   1.0000   1.0000   1.0000   1.0000   1.0000   1.0000   1.0000
     1.0000   1.0000   1.0000   1.0000   1.0000   1.0000   1.0000   1.0000

          k =-0.2500 0.0722-0.1705 (  9213 PWs)   bands (ev):

   -16.1330 -15.6851 -15.1786 -14.5391 -14.4827 -14.4543  -5.6424  -4.6369
    -3.7925  -2.7536  -2.4312  -2.3442  -0.6057  -0.4623   0.0748   0.4110
     0.5825   0.9551   1.3229   1.5029   1.6338   1.8623   2.0213   2.3918

     occupation numbers 
     1.0000   1.0000   1.0000   1.0000   1.0000   1.0000   1.0000   1.0000
     1.0000   1.0000   1.0000   1.0000   1.0000   1.0000   1.0000   1.0000
     1.0000   1.0000   1.0000   1.0000   1.0000   1.0000   1.0000   1.0000

          k = 0.1250-0.1443-0.0568 (  9215 PWs)   bands (ev):

   -16.3659 -15.5436 -15.0552 -14.5151 -14.4826 -14.4431  -5.8035  -4.8953
    -3.3080  -2.8267  -2.6508  -2.2475  -0.5663  -0.1839   0.0197   0.3186
     0.5463   0.9436   1.0566   1.4128   1.6366   1.7945   2.3042   2.5101

     occupation numbers 
     1.0000   1.0000   1.0000   1.0000   1.0000   1.0000   1.0000   1.0000
     1.0000   1.0000   1.0000   1.0000   1.0000   1.0000   1.0000   1.0000
     1.0000   1.0000   1.0000   1.0000   1.0000   1.0000   1.0000   1.0000

          k = 0.1250-0.1443-0.1705 (  9207 PWs)   bands (ev):

   -16.2070 -15.8194 -14.9444 -14.5222 -14.4762 -14.4442  -5.9783  -4.4176
    -3.7081  -2.7806  -2.5433  -2.3095  -0.5813  -0.3391   0.1210   0.3020
     0.6187   0.9783   1.1939   1.3966   1.6483   1.8960   2.2350   2.3657

     occupation numbers 
     1.0000   1.0000   1.0000   1.0000   1.0000   1.0000   1.0000   1.0000
     1.0000   1.0000   1.0000   1.0000   1.0000   1.0000   1.0000   1.0000
     1.0000   1.0000   1.0000   1.0000   1.0000   1.0000   1.0000   1.0000

          k = 0.0000-0.0722-0.0568 (  9206 PWs)   bands (ev):

   -16.6172 -15.4181 -14.9093 -14.4798 -14.4400 -14.4252  -6.0067  -5.1074
    -2.9917  -2.8414  -2.7020  -2.4656  -0.4495  -0.2272  -0.0413   0.2902
     0.8317   1.1059   1.1251   1.3645   1.6877   1.8795   2.2410   2.4675

     occupation numbers 
     1.0000   1.0000   1.0000   1.0000   1.0000   1.0000   1.0000   1.0000
     1.0000   1.0000   1.0000   1.0000   1.0000   1.0000   1.0000   1.0000
     1.0000   1.0000   1.0000   1.0000   1.0000   1.0000   1.0000   1.0000

          k = 0.0000-0.0722-0.1705 (  9184 PWs)   bands (ev):

   -16.3822 -15.9514 -14.5893 -14.4745 -14.4527 -14.4136  -6.5370  -4.1469
    -3.4173  -2.9370  -2.8744  -2.1536  -0.3670  -0.0228  -0.0112   0.3850
     0.5897   0.9130   1.0253   1.1298   1.4726   2.1644   2.3661   2.5290

     occupation numbers 
     1.0000   1.0000   1.0000   1.0000   1.0000   1.0000   1.0000   1.0000
     1.0000   1.0000   1.0000   1.0000   1.0000   1.0000   1.0000   1.0000
     1.0000   1.0000   1.0000   1.0000   1.0000   1.0000   1.0000   1.0000

          k = 0.0000-0.2165-0.0568 (  9221 PWs)   bands (ev):

   -16.3042 -15.5855 -15.0884 -14.5160 -14.4738 -14.4566  -5.7770  -4.8576
    -3.3061  -2.8668  -2.6722  -2.1582  -0.5165  -0.1946  -0.0494   0.1513
     0.6174   0.9107   1.1095   1.4461   1.5483   1.8761   2.2274   2.5570

     occupation numbers 
     1.0000   1.0000   1.0000   1.0000   1.0000   1.0000   1.0000   1.0000
     1.0000   1.0000   1.0000   1.0000   1.0000   1.0000   1.0000   1.0000
     1.0000   1.0000   1.0000   1.0000   1.0000   1.0000   1.0000   1.0000

          k = 0.0000-0.2165-0.1705 (  9202 PWs)   bands (ev):

   -16.1815 -15.7608 -15.0518 -14.5275 -14.4692 -14.4466  -5.8581  -4.5193
    -3.6943  -2.8087  -2.4803  -2.2999  -0.5727  -0.4526   0.1767   0.2784
     0.5390   1.0924   1.2373   1.4504   1.6471   1.7874   2.0927   2.4803

     occupation numbers 
     1.0000   1.0000   1.0000   1.0000   1.0000   1.0000   1.0000   1.0000
     1.0000   1.0000   1.0000   1.0000   1.0000   1.0000   1.0000   1.0000
     1.0000   1.0000   1.0000   1.0000   1.0000   1.0000   1.0000   1.0000

     highest occupied level (ev):     2.5570

!    total energy              =    -216.59579265 Ry
     Harris-Foulkes estimate   =    -216.59579265 Ry
     estimated scf accuracy    <          5.7E-11 Ry

     The total energy is the sum of the following terms:

     one-electron contribution =    -104.85195360 Ry
     hartree contribution      =      78.13083046 Ry
     xc contribution           =     -50.91270510 Ry
     ewald contribution        =    -138.96196441 Ry

     convergence has been achieved in   9 iterations

     Forces acting on atoms (cartesian axes, Ry/au):

     atom    1 type  1   force =     0.00061210   -0.00105624   -0.00000422
     atom    2 type  1   force =     0.00061210    0.00105624    0.00000422
     atom    3 type  1   force =    -0.00121996    0.00000000    0.00000000
     atom    4 type  2   force =    -0.00520807    0.01174795    0.00464778
     atom    5 type  2   force =    -0.00757488   -0.01038490    0.00464521
     atom    6 type  2   force =     0.01278083   -0.00136755    0.00464455
     atom    7 type  2   force =    -0.00520807   -0.01174795   -0.00464778
     atom    8 type  2   force =    -0.00757488    0.01038490   -0.00464521
     atom    9 type  2   force =     0.01278083    0.00136755   -0.00464455
     The non-local contrib.  to forces
     atom    1 type  1   force =    -0.00275722    0.00478941   -0.00000929
     atom    2 type  1   force =    -0.00275722   -0.00478941    0.00000929
     atom    3 type  1   force =     0.00553071    0.00000000    0.00000000
     atom    4 type  2   force =     0.40191678   -0.74304808   -0.48783790
     atom    5 type  2   force =     0.44253737    0.71959973   -0.48783961
     atom    6 type  2   force =    -0.84444749    0.02345132   -0.48783765
     atom    7 type  2   force =     0.40191678    0.74304808    0.48783790
     atom    8 type  2   force =     0.44253737   -0.71959973    0.48783961
     atom    9 type  2   force =    -0.84444749   -0.02345132    0.48783765
     The ionic contribution  to forces
     atom    1 type  1   force =    -0.02624446    0.04549851   -0.00003980
     atom    2 type  1   force =    -0.02624446   -0.04549851    0.00003980
     atom    3 type  1   force =     0.05254218    0.00000000    0.00000000
     atom    4 type  2   force =    -2.01280941    2.87798355    1.63888123
     atom    5 type  2   force =    -1.48603190   -3.18215155    1.63886102
     atom    6 type  2   force =     3.49881469    0.30413529    1.63885390
     atom    7 type  2   force =    -2.01280941   -2.87798355   -1.63888123
     atom    8 type  2   force =    -1.48603190    3.18215155   -1.63886102
     atom    9 type  2   force =     3.49881469   -0.30413529   -1.63885390
     The local contribution  to forces
     atom    1 type  1   force =     0.02961414   -0.05134280    0.00004645
     atom    2 type  1   force =     0.02961414    0.05134280   -0.00004645
     atom    3 type  1   force =    -0.05929511   -0.00000000   -0.00000000
     atom    4 type  2   force =     1.60568382   -2.12318727   -1.14639473
     atom    5 type  2   force =     1.03592029    2.45216678   -1.14637700
     atom    6 type  2   force =    -2.64158635   -0.32895438   -1.14637375
     atom    7 type  2   force =     1.60568382    2.12318727    1.14639473
     atom    8 type  2   force =     1.03592029   -2.45216678    1.14637700
     atom    9 type  2   force =    -2.64158635    0.32895438    1.14637375
     The core correction contribution to forces
     atom    1 type  1   force =     0.00000000    0.00000000    0.00000000
     atom    2 type  1   force =     0.00000000    0.00000000    0.00000000
     atom    3 type  1   force =     0.00000000    0.00000000    0.00000000
     atom    4 type  2   force =     0.00000000    0.00000000    0.00000000
     atom    5 type  2   force =     0.00000000    0.00000000    0.00000000
     atom    6 type  2   force =     0.00000000    0.00000000    0.00000000
     atom    7 type  2   force =     0.00000000    0.00000000    0.00000000
     atom    8 type  2   force =     0.00000000    0.00000000    0.00000000
     atom    9 type  2   force =     0.00000000    0.00000000    0.00000000
     The Hubbard contrib.    to forces
     atom    1 type  1   force =     0.00000000    0.00000000    0.00000000
     atom    2 type  1   force =     0.00000000    0.00000000    0.00000000
     atom    3 type  1   force =     0.00000000    0.00000000    0.00000000
     atom    4 type  2   force =     0.00000000    0.00000000    0.00000000
     atom    5 type  2   force =     0.00000000    0.00000000    0.00000000
     atom    6 type  2   force =     0.00000000    0.00000000    0.00000000
     atom    7 type  2   force =     0.00000000    0.00000000    0.00000000
     atom    8 type  2   force =     0.00000000    0.00000000    0.00000000
     atom    9 type  2   force =     0.00000000    0.00000000    0.00000000
     The SCF correction term to forces
     atom    1 type  1   force =    -0.00000012   -0.00000136   -0.00000159
     atom    2 type  1   force =    -0.00000012    0.00000136    0.00000159
     atom    3 type  1   force =     0.00000250   -0.00000000   -0.00000000
     atom    4 type  2   force =     0.00000097   -0.00000025   -0.00000082
     atom    5 type  2   force =    -0.00000041    0.00000015    0.00000080
     atom    6 type  2   force =     0.00000021    0.00000021    0.00000205
     atom    7 type  2   force =     0.00000097    0.00000025    0.00000082
     atom    8 type  2   force =    -0.00000041   -0.00000015   -0.00000080
     atom    9 type  2   force =     0.00000021   -0.00000021   -0.00000205

     Total force =     0.033543     Total SCF correction =     0.000005


     Computing stress (Cartesian axis) and pressure

          total   stress  (Ry/bohr**3)                   (kbar)     P=   72.66
   0.00049587   0.00000000   0.00000000         72.95      0.00      0.00
   0.00000000   0.00049579   0.00000001          0.00     72.93      0.00
   0.00000000   0.00000001   0.00049019          0.00      0.00     72.11

     kinetic stress (kbar)  19227.39      0.00      0.00
                                0.00  19227.37      0.00
                                0.00      0.00  19195.45

     local   stress (kbar) -17214.97      0.00     -0.00
                                0.00 -17214.92      0.03
                               -0.00      0.03 -18450.41

     nonloc. stress (kbar)   5487.30      0.00      0.00
                                0.00   5487.30     -0.00
                                0.00     -0.00   5495.72

     hartree stress (kbar)   4880.88     -0.00     -0.00
                               -0.00   4880.86     -0.01
                               -0.00     -0.01   5319.93

     exc-cor stress (kbar)  -3093.66      0.00      0.00
                                0.00  -3093.66     -0.00
                                0.00     -0.00  -3092.63

     corecor stress (kbar)      0.00      0.00      0.00
                                0.00      0.00      0.00
                                0.00      0.00      0.00

     ewald   stress (kbar)  -9213.99     -0.00      0.00
                               -0.00  -9214.01     -0.02
                                0.00     -0.02  -8395.95

     hubbard stress (kbar)      0.00      0.00      0.00
                                0.00      0.00      0.00
                                0.00      0.00      0.00

     london  stress (kbar)      0.00      0.00      0.00
                                0.00      0.00      0.00
                                0.00      0.00      0.00

     DFT-D3  stress (kbar)      0.00      0.00      0.00
                                0.00      0.00      0.00
                                0.00      0.00      0.00

     XDM     stress (kbar)      0.00      0.00      0.00
                                0.00      0.00      0.00
                                0.00      0.00      0.00

     dft-nl  stress (kbar)      0.00      0.00      0.00
                                0.00      0.00      0.00
                                0.00      0.00      0.00

     TS-vdW  stress (kbar)      0.00      0.00      0.00
                                0.00      0.00      0.00
                                0.00      0.00      0.00



     Writing output data file quartz.save/
 
     init_run     :      1.41s CPU      1.48s WALL (       1 calls)
     electrons    :     17.41s CPU     17.98s WALL (       1 calls)
     forces       :      0.17s CPU      0.17s WALL (       1 calls)
     stress       :      0.41s CPU      0.42s WALL (       1 calls)

     Called by init_run:
     wfcinit      :      1.06s CPU      1.11s WALL (       1 calls)
     wfcinit:atom :      0.02s CPU      0.03s WALL (      20 calls)
     wfcinit:wfcr :      0.94s CPU      0.99s WALL (      20 calls)
     potinit      :      0.12s CPU      0.13s WALL (       1 calls)
     hinit0       :      0.10s CPU      0.10s WALL (       1 calls)

     Called by electrons:
     c_bands      :     14.74s CPU     15.23s WALL (       9 calls)
     sum_band     :      2.40s CPU      2.47s WALL (       9 calls)
     v_of_rho     :      0.23s CPU      0.23s WALL (      10 calls)
     v_h          :      0.02s CPU      0.02s WALL (      10 calls)
     v_xc         :      0.21s CPU      0.21s WALL (      10 calls)
     mix_rho      :      0.06s CPU      0.06s WALL (       9 calls)

     Called by c_bands:
     init_us_2    :      0.40s CPU      0.38s WALL (     420 calls)
     cegterg      :     14.32s CPU     14.81s WALL (     180 calls)

     Called by sum_band:

     Called by *egterg:
     h_psi        :     12.55s CPU     13.00s WALL (     600 calls)
     g_psi        :      0.12s CPU      0.13s WALL (     400 calls)
     cdiaghg      :      0.50s CPU      0.49s WALL (     580 calls)
     cegterg:over :      0.84s CPU      0.86s WALL (     400 calls)
     cegterg:upda :      0.51s CPU      0.57s WALL (     400 calls)
     cegterg:last :      0.27s CPU      0.29s WALL (     200 calls)

     Called by h_psi:
     h_psi:pot    :     12.37s CPU     12.84s WALL (     600 calls)
     h_psi:calbec :      0.42s CPU      0.41s WALL (     600 calls)
     vloc_psi     :     11.62s CPU     12.10s WALL (     600 calls)
     add_vuspsi   :      0.32s CPU      0.32s WALL (     600 calls)

     General routines
     calbec       :      0.46s CPU      0.46s WALL (     700 calls)
     fft          :      0.10s CPU      0.10s WALL (     107 calls)
     ffts         :      0.00s CPU      0.01s WALL (       9 calls)
     fftw         :     11.76s CPU     12.17s WALL (   33224 calls)
 
     Parallel routines
     fft_scatt_xy :      1.80s CPU      1.99s WALL (   33340 calls)
     fft_scatt_yz :      3.17s CPU      3.15s WALL (   33340 calls)
 
     PWSCF        :     19.46s CPU     20.20s WALL

 
   This run was terminated on:  13:35: 6  29May2019            

=------------------------------------------------------------------------------=
   JOB DONE.
=------------------------------------------------------------------------------=
