
     Program PWSCF v.6.6 starts on 19Nov2020 at 13:19:50 

     This program is part of the open-source Quantum ESPRESSO suite
     for quantum simulation of materials; please cite
         "P. Giannozzi et al., J. Phys.:Condens. Matter 21 395502 (2009);
         "P. Giannozzi et al., J. Phys.:Condens. Matter 29 465901 (2017);
          URL http://www.quantum-espresso.org", 
     in publications or presentations arising from this work. More details at
     http://www.quantum-espresso.org/quote

     Parallel version (MPI), running on     4 processors

     MPI processes distributed on     1 nodes
     R & G space division:  proc/nbgrp/npool/nimage =       4
     Fft bands division:     nmany     =       1
     Waiting for input...
     Reading input from standard input
     Message from routine read_cards :
     DEPRECATED: no units specified in CELL_PARAMETERS card

     Current dimensions of program PWSCF are:
     Max number of different atomic species (ntypx) = 10
     Max number of k-points (npk) =  40000
     Max angular momentum in pseudopotentials (lmaxx) =  3

     Subspace diagonalization in iterative solution of the eigenvalue problem:
     one sub-group per band group will be used
     scalapack distributed-memory algorithm (size of sub-group:  2*  2 procs)

     Message from routine setup:
     using ibrav=0 with symmetry is DISCOURAGED, use correct ibrav instead
 
     Parallelization info
     --------------------
     sticks:   dense  smooth     PW     G-vecs:    dense   smooth      PW
     Min         296     118     40                 9074     2300     460
     Max         298     119     41                 9075     2301     463
     Sum        1189     475    163                36297     9203    1847
 


     bravais-lattice index     =            0
     lattice parameter (alat)  =       4.6415  a.u.
     unit-cell volume          =     762.0804 (a.u.)^3
     number of atoms/cell      =            9
     number of atomic types    =            2
     number of electrons       =        48.00
     number of Kohn-Sham states=           24
     kinetic-energy cutoff     =      20.0000  Ry
     charge density cutoff     =     200.0000  Ry
     convergence threshold     =      1.0E-10
     mixing beta               =       0.7000
     number of iterations used =            8  plain     mixing
     Exchange-correlation=  SLA  PW   PBX  PBC
                           (   1   4   3   4   0   0   0)

     celldm(1)=   4.641538  celldm(2)=   0.000000  celldm(3)=   0.000000
     celldm(4)=   0.000000  celldm(5)=   0.000000  celldm(6)=   0.000000

     crystal axes: (cart. coord. in units of alat)
               a(1) = (   1.000000  -1.732058   0.000000 )  
               a(2) = (   1.000000   1.732058   0.000000 )  
               a(3) = (   0.000000   0.000000   2.200000 )  

     reciprocal axes: (cart. coord. in units 2 pi/alat)
               b(1) = (  0.500000 -0.288674  0.000000 )  
               b(2) = (  0.500000  0.288674  0.000000 )  
               b(3) = (  0.000000  0.000000  0.454545 )  


     PseudoPot. # 1 for Si read from file:
     ./pseudo/Si.pbe-tm-gipaw.UPF
     MD5 check sum: 744ed8b2dc623e0d56f5dfff7afbe95f
     Pseudo is Norm-conserving, Zval =  4.0
     Generated by new atomic code, or converted to UPF format
     Using radial grid of 1141 points,  2 beta functions with: 
                l(1) =   0
                l(2) =   1

     PseudoPot. # 2 for O  read from file:
     ./pseudo/O.pbe-rrkjus-gipaw-dc.UPF
     MD5 check sum: 076ad46ec5cb747f63175931fb098378
     Pseudo is Ultrasoft + core correction, Zval =  6.0
     Generated by new atomic code, or converted to UPF format
     Using radial grid of  685 points,  4 beta functions with: 
                l(1) =   0
                l(2) =   0
                l(3) =   1
                l(4) =   1
     Q(r) pseudized with 0 coefficients 


     atomic species   valence    mass     pseudopotential
        Si             4.00    28.08600     Si( 1.00)
        O              6.00    15.99900     O ( 1.00)

      2 Sym. Ops. (no inversion) found


                                    s                        frac. trans.

      isym =  1     identity                                     

 cryst.   s( 1) = (     1          0          0      )
                  (     0          1          0      )
                  (     0          0          1      )

 cart.    s( 1) = (  1.0000000  0.0000000  0.0000000 )
                  (  0.0000000  1.0000000  0.0000000 )
                  (  0.0000000  0.0000000  1.0000000 )


      isym =  2     180 deg rotation - cart. axis [1,0,0]        

 cryst.   s( 2) = (     0          1          0      )
                  (     1          0          0      )
                  (     0          0         -1      )

 cart.    s( 2) = (  1.0000000  0.0000000  0.0000000 )
                  (  0.0000000 -1.0000000  0.0000000 )
                  (  0.0000000  0.0000000 -1.0000000 )


   Cartesian axes

     site n.     atom                  positions (alat units)
         1           Si  tau(   1) = (   0.4701000  -0.8142405   0.7333333  )
         2           Si  tau(   2) = (   0.4701000   0.8142405   1.4666667  )
         3           Si  tau(   3) = (  -0.9402000   0.0000000   0.0000000  )
         4           O   tau(   4) = (   0.6813000  -0.2537465   0.4716800  )
         5           O   tau(   5) = (  -0.1209000   0.7168988   1.2050133  )
         6           O   tau(   6) = (  -0.5604000  -0.4631523   1.9383467  )
         7           O   tau(   7) = (   0.6813000   0.2537465  -0.4716800  )
         8           O   tau(   8) = (  -0.1209000  -0.7168988   0.9949867  )
         9           O   tau(   9) = (  -0.5604000   0.4631523   0.2616533  )

   Crystallographic axes

     site n.     atom                  positions (cryst. coord.)
         1           Si  tau(   1) = (  0.4701000  0.0000000  0.3333333  )
         2           Si  tau(   2) = (  0.0000000  0.4701000  0.6666667  )
         3           Si  tau(   3) = ( -0.4701000 -0.4701000  0.0000000  )
         4           O   tau(   4) = (  0.4139000  0.2674000  0.2144000  )
         5           O   tau(   5) = ( -0.2674000  0.1465000  0.5477333  )
         6           O   tau(   6) = ( -0.1465000 -0.4139000  0.8810667  )
         7           O   tau(   7) = (  0.2674000  0.4139000 -0.2144000  )
         8           O   tau(   8) = (  0.1465000 -0.2674000  0.4522667  )
         9           O   tau(   9) = ( -0.4139000 -0.1465000  0.1189333  )

     number of k points=    10
                       cart. coord. in units 2pi/alat
        k(    1) = (   0.1666667   0.0000000   0.0757576), wk =   0.2962963
        k(    2) = (   0.1666667   0.0000000  -0.2272727), wk =   0.1481481
        k(    3) = (  -0.1666667  -0.1924493   0.0757576), wk =   0.2962963
        k(    4) = (  -0.1666667  -0.1924493  -0.2272727), wk =   0.2962963
        k(    5) = (  -0.0000000  -0.0962246   0.0757576), wk =   0.1481481
        k(    6) = (  -0.0000000  -0.0962246  -0.2272727), wk =   0.1481481
        k(    7) = (  -0.5000000   0.0000000   0.0757576), wk =   0.1481481
        k(    8) = (  -0.5000000   0.0000000  -0.2272727), wk =   0.0740741
        k(    9) = (   0.1666667  -0.1924493  -0.0757576), wk =   0.2962963
        k(   10) = (   0.0000000  -0.0962246  -0.0757576), wk =   0.1481481

                       cryst. coord.
        k(    1) = (   0.1666667   0.1666667   0.1666667), wk =   0.2962963
        k(    2) = (   0.1666667   0.1666667  -0.5000000), wk =   0.1481481
        k(    3) = (   0.1666667  -0.5000000   0.1666667), wk =   0.2962963
        k(    4) = (   0.1666667  -0.5000000  -0.5000000), wk =   0.2962963
        k(    5) = (   0.1666667  -0.1666667   0.1666667), wk =   0.1481481
        k(    6) = (   0.1666667  -0.1666667  -0.5000000), wk =   0.1481481
        k(    7) = (  -0.5000000  -0.5000000   0.1666667), wk =   0.1481481
        k(    8) = (  -0.5000000  -0.5000000  -0.5000000), wk =   0.0740741
        k(    9) = (   0.5000000  -0.1666667  -0.1666667), wk =   0.2962963
        k(   10) = (   0.1666667  -0.1666667  -0.1666667), wk =   0.1481481

     Dense  grid:    36297 G-vectors     FFT dimensions: (  45,  45,  45)

     Smooth grid:     9203 G-vectors     FFT dimensions: (  27,  27,  30)

     Dynamical RAM for                 wfc:       0.11 MB

     Dynamical RAM for     wfc (w. buffer):       1.16 MB

     Dynamical RAM for           str. fact:       0.28 MB

     Dynamical RAM for           local pot:       0.00 MB

     Dynamical RAM for          nlocal pot:       0.26 MB

     Dynamical RAM for                qrad:       0.65 MB

     Dynamical RAM for          rho,v,vnew:       0.97 MB

     Dynamical RAM for               rhoin:       0.32 MB

     Dynamical RAM for            rho*nmix:       2.22 MB

     Dynamical RAM for           G-vectors:       0.54 MB

     Dynamical RAM for          h,s,v(r/c):       0.03 MB

     Dynamical RAM for          <psi|beta>:       0.02 MB

     Dynamical RAM for                 psi:       0.21 MB

     Dynamical RAM for                hpsi:       0.21 MB

     Dynamical RAM for                spsi:       0.21 MB

     Dynamical RAM for      wfcinit/wfcrot:       0.79 MB

     Dynamical RAM for           addusdens:       6.79 MB

     Dynamical RAM for          addusforce:       8.24 MB

     Dynamical RAM for         addusstress:       6.92 MB

     Estimated static dynamical RAM per process >       7.74 MB

     Estimated max dynamical RAM per process >      15.98 MB

     Estimated total dynamical RAM >      63.92 MB

     Initial potential from superposition of free atoms

     starting charge   46.41466, renormalised to   48.00000
     Starting wfcs are   75 randomized atomic wfcs

     total cpu time spent up to now is        0.5 secs

     Self-consistent Calculation

     iteration #  1     ecut=    20.00 Ry     beta= 0.70
     Davidson diagonalization with overlap
     ethr =  1.00E-04,  avg # of iterations =  4.0

     total cpu time spent up to now is        1.1 secs

     total energy              =    -213.14852496 Ry
     estimated scf accuracy    <       0.51010650 Ry

     iteration #  2     ecut=    20.00 Ry     beta= 0.70
     Davidson diagonalization with overlap
     ethr =  1.06E-03,  avg # of iterations =  1.0

     total cpu time spent up to now is        1.4 secs

     total energy              =    -213.14814221 Ry
     estimated scf accuracy    <       0.03836987 Ry

     iteration #  3     ecut=    20.00 Ry     beta= 0.70
     Davidson diagonalization with overlap
     ethr =  7.99E-05,  avg # of iterations =  1.0

     total cpu time spent up to now is        1.8 secs

     total energy              =    -213.14906652 Ry
     estimated scf accuracy    <       0.00008706 Ry

     iteration #  4     ecut=    20.00 Ry     beta= 0.70
     Davidson diagonalization with overlap
     ethr =  1.81E-07,  avg # of iterations =  3.0

     total cpu time spent up to now is        2.3 secs

     total energy              =    -213.14913271 Ry
     estimated scf accuracy    <       0.00001148 Ry

     iteration #  5     ecut=    20.00 Ry     beta= 0.70
     Davidson diagonalization with overlap
     ethr =  2.39E-08,  avg # of iterations =  2.0

     total cpu time spent up to now is        2.7 secs

     total energy              =    -213.14913710 Ry
     estimated scf accuracy    <       0.00000519 Ry

     iteration #  6     ecut=    20.00 Ry     beta= 0.70
     Davidson diagonalization with overlap
     ethr =  1.08E-08,  avg # of iterations =  2.0

     total cpu time spent up to now is        3.2 secs

     total energy              =    -213.14913829 Ry
     estimated scf accuracy    <       0.00000002 Ry

     iteration #  7     ecut=    20.00 Ry     beta= 0.70
     Davidson diagonalization with overlap
     ethr =  5.17E-11,  avg # of iterations =  3.0

     total cpu time spent up to now is        3.7 secs

     total energy              =    -213.14913833 Ry
     estimated scf accuracy    <          8.5E-09 Ry

     iteration #  8     ecut=    20.00 Ry     beta= 0.70
     Davidson diagonalization with overlap
     ethr =  1.78E-11,  avg # of iterations =  2.0

     total cpu time spent up to now is        4.2 secs

     total energy              =    -213.14913834 Ry
     estimated scf accuracy    <          3.0E-10 Ry

     iteration #  9     ecut=    20.00 Ry     beta= 0.70
     Davidson diagonalization with overlap
     ethr =  6.21E-13,  avg # of iterations =  2.0

     total cpu time spent up to now is        4.6 secs

     End of self-consistent calculation

          k = 0.1667 0.0000 0.0758 (  1158 PWs)   bands (ev):

   -17.8748 -17.1112 -16.6369 -16.2258 -16.2019 -16.1746  -5.8693  -4.8764
    -3.2814  -2.8069  -2.5825  -2.3346  -0.4680  -0.0771   0.0872   0.3334
     0.6337   1.0335   1.1403   1.5446   1.8250   1.9664   2.4371   2.7613

     occupation numbers 
     1.0000   1.0000   1.0000   1.0000   1.0000   1.0000   1.0000   1.0000
     1.0000   1.0000   1.0000   1.0000   1.0000   1.0000   1.0000   1.0000
     1.0000   1.0000   1.0000   1.0000   1.0000   1.0000   1.0000   1.0000

          k = 0.1667 0.0000-0.2273 (  1152 PWs)   bands (ev):

   -17.6480 -17.4755 -16.4911 -16.2337 -16.1905 -16.1797  -6.0995  -4.1779
    -3.7884  -2.7290  -2.6407  -2.2172  -0.4091  -0.3600   0.2598   0.3255
     0.7131   1.1787   1.2678   1.5430   1.6937   2.2352   2.3809   2.5862

     occupation numbers 
     1.0000   1.0000   1.0000   1.0000   1.0000   1.0000   1.0000   1.0000
     1.0000   1.0000   1.0000   1.0000   1.0000   1.0000   1.0000   1.0000
     1.0000   1.0000   1.0000   1.0000   1.0000   1.0000   1.0000   1.0000

          k =-0.1667-0.1924 0.0758 (  1150 PWs)   bands (ev):

   -17.6694 -17.2220 -16.7386 -16.2361 -16.2130 -16.1846  -5.7388  -4.6275
    -3.5982  -2.7642  -2.5787  -2.0968  -0.4022  -0.2225  -0.0154   0.4331
     0.7049   0.9322   1.3027   1.4363   1.7292   2.1735   2.4548   2.7533

     occupation numbers 
     1.0000   1.0000   1.0000   1.0000   1.0000   1.0000   1.0000   1.0000
     1.0000   1.0000   1.0000   1.0000   1.0000   1.0000   1.0000   1.0000
     1.0000   1.0000   1.0000   1.0000   1.0000   1.0000   1.0000   1.0000

          k =-0.1667-0.1924-0.2273 (  1150 PWs)   bands (ev):

   -17.6107 -17.2360 -16.7786 -16.2573 -16.2040 -16.1946  -5.5943  -4.6382
    -3.8955  -2.6285  -2.4598  -2.3058  -0.5465  -0.3552   0.1150   0.5792
     0.7604   1.0798   1.5501   1.6601   1.8256   2.0062   2.2136   2.4709

     occupation numbers 
     1.0000   1.0000   1.0000   1.0000   1.0000   1.0000   1.0000   1.0000
     1.0000   1.0000   1.0000   1.0000   1.0000   1.0000   1.0000   1.0000
     1.0000   1.0000   1.0000   1.0000   1.0000   1.0000   1.0000   1.0000

          k =-0.0000-0.0962 0.0758 (  1159 PWs)   bands (ev):

   -18.0059 -17.0830 -16.5265 -16.2093 -16.1874 -16.1645  -6.0492  -4.9575
    -3.0576  -2.8239  -2.6203  -2.4313  -0.4233  -0.0755   0.0601   0.3864
     0.7315   1.0934   1.1481   1.4215   1.8743   2.0527   2.4173   2.7472

     occupation numbers 
     1.0000   1.0000   1.0000   1.0000   1.0000   1.0000   1.0000   1.0000
     1.0000   1.0000   1.0000   1.0000   1.0000   1.0000   1.0000   1.0000
     1.0000   1.0000   1.0000   1.0000   1.0000   1.0000   1.0000   1.0000

          k =-0.0000-0.0962-0.2273 (  1152 PWs)   bands (ev):

   -17.6792 -17.6189 -16.2966 -16.2129 -16.1857 -16.1608  -6.4400  -3.8694
    -3.6774  -2.8605  -2.8105  -2.1304  -0.2173  -0.1848   0.1698   0.4769
     0.6345   1.0093   1.1191   1.3204   1.6057   2.4649   2.5070   2.7175

     occupation numbers 
     1.0000   1.0000   1.0000   1.0000   1.0000   1.0000   1.0000   1.0000
     1.0000   1.0000   1.0000   1.0000   1.0000   1.0000   1.0000   1.0000
     1.0000   1.0000   1.0000   1.0000   1.0000   1.0000   1.0000   1.0000

          k =-0.5000 0.0000 0.0758 (  1150 PWs)   bands (ev):

   -17.6622 -17.2356 -16.7269 -16.2415 -16.2127 -16.1835  -5.7214  -4.7254
    -3.4580  -2.8302  -2.5912  -2.0830  -0.4198  -0.2790   0.1405   0.3876
     0.7532   0.8884   1.1708   1.6204   1.7893   2.0243   2.4512   2.7650

     occupation numbers 
     1.0000   1.0000   1.0000   1.0000   1.0000   1.0000   1.0000   1.0000
     1.0000   1.0000   1.0000   1.0000   1.0000   1.0000   1.0000   1.0000
     1.0000   1.0000   1.0000   1.0000   1.0000   1.0000   1.0000   1.0000

          k =-0.5000 0.0000-0.2273 (  1140 PWs)   bands (ev):

   -17.6132 -17.2095 -16.8044 -16.2590 -16.2014 -16.1787  -5.5531  -4.6870
    -3.7891  -2.6867  -2.3778  -2.2729  -0.4970  -0.4307   0.2726   0.6384
     0.6641   1.1955   1.5538   1.6852   1.8884   1.9323   2.2020   2.6040

     occupation numbers 
     1.0000   1.0000   1.0000   1.0000   1.0000   1.0000   1.0000   1.0000
     1.0000   1.0000   1.0000   1.0000   1.0000   1.0000   1.0000   1.0000
     1.0000   1.0000   1.0000   1.0000   1.0000   1.0000   1.0000   1.0000

          k = 0.1667-0.1924-0.0758 (  1150 PWs)   bands (ev):

   -17.6672 -17.2302 -16.7288 -16.2378 -16.2178 -16.1830  -5.7241  -4.6514
    -3.6279  -2.7496  -2.5577  -2.1020  -0.4506  -0.2040   0.0165   0.4983
     0.6874   0.9304   1.1701   1.5284   1.7626   2.1326   2.4992   2.7380

     occupation numbers 
     1.0000   1.0000   1.0000   1.0000   1.0000   1.0000   1.0000   1.0000
     1.0000   1.0000   1.0000   1.0000   1.0000   1.0000   1.0000   1.0000
     1.0000   1.0000   1.0000   1.0000   1.0000   1.0000   1.0000   1.0000

          k = 0.0000-0.0962-0.0758 (  1159 PWs)   bands (ev):

   -18.0082 -17.0780 -16.5326 -16.2093 -16.1775 -16.1683  -6.0244  -4.9334
    -3.0797  -2.8589  -2.6286  -2.3879  -0.3714  -0.0694   0.0761   0.3739
     0.6686   1.0963   1.1733   1.4132   1.8626   1.9986   2.4123   2.7437

     occupation numbers 
     1.0000   1.0000   1.0000   1.0000   1.0000   1.0000   1.0000   1.0000
     1.0000   1.0000   1.0000   1.0000   1.0000   1.0000   1.0000   1.0000
     1.0000   1.0000   1.0000   1.0000   1.0000   1.0000   1.0000   1.0000

     highest occupied level (ev):     2.7650

!    total energy              =    -213.14913834 Ry
     estimated scf accuracy    <          8.4E-11 Ry

     The total energy is the sum of the following terms:
     one-electron contribution =     -97.34091017 Ry
     hartree contribution      =      73.17240328 Ry
     xc contribution           =     -50.01866700 Ry
     ewald contribution        =    -138.96196445 Ry

     convergence has been achieved in   9 iterations

     Forces acting on atoms (cartesian axes, Ry/au):

     atom    1 type  1   force =     0.00338878   -0.00622528   -0.00047862
     atom    2 type  1   force =     0.00338878    0.00622528    0.00047862
     atom    3 type  1   force =    -0.00741367    0.00000000    0.00000000
     atom    4 type  2   force =    -0.01926350    0.03437904    0.01846954
     atom    5 type  2   force =    -0.01960297   -0.03375040    0.01841253
     atom    6 type  2   force =     0.03918453   -0.00035833    0.01887443
     atom    7 type  2   force =    -0.01926350   -0.03437904   -0.01846954
     atom    8 type  2   force =    -0.01960297    0.03375040   -0.01841253
     atom    9 type  2   force =     0.03918453    0.00035833   -0.01887443
     The non-local contrib.  to forces
     atom    1 type  1   force =    -0.00487896    0.00739139   -0.00100054
     atom    2 type  1   force =    -0.00487896   -0.00739139    0.00100054
     atom    3 type  1   force =     0.00874045    0.00000000    0.00000000
     atom    4 type  2   force =     0.36488337   -0.70944314   -0.46016085
     atom    5 type  2   force =     0.43167123    0.67108185   -0.46064905
     atom    6 type  2   force =    -0.79587570    0.03798869   -0.46135285
     atom    7 type  2   force =     0.36488337    0.70944314    0.46016085
     atom    8 type  2   force =     0.43167123   -0.67108185    0.46064905
     atom    9 type  2   force =    -0.79587570   -0.03798869    0.46135285
     The ionic contribution  to forces
     atom    1 type  1   force =    -0.02624446    0.04549851   -0.00003980
     atom    2 type  1   force =    -0.02624446   -0.04549851    0.00003980
     atom    3 type  1   force =     0.05254218    0.00000000   -0.00000000
     atom    4 type  2   force =    -2.01280941    2.87798355    1.63888123
     atom    5 type  2   force =    -1.48603190   -3.18215155    1.63886102
     atom    6 type  2   force =     3.49881469    0.30413529    1.63885390
     atom    7 type  2   force =    -2.01280941   -2.87798355   -1.63888123
     atom    8 type  2   force =    -1.48603190    3.18215155   -1.63886102
     atom    9 type  2   force =     3.49881469   -0.30413529   -1.63885390
     The local contribution  to forces
     atom    1 type  1   force =     0.03451279   -0.05911468    0.00056259
     atom    2 type  1   force =     0.03451279    0.05911468   -0.00056259
     atom    3 type  1   force =    -0.06869739   -0.00000000    0.00000000
     atom    4 type  2   force =     1.62867073   -2.13417513   -1.16025993
     atom    5 type  2   force =     1.03476624    2.47733336   -1.15980976
     atom    6 type  2   force =    -2.66377036   -0.34248268   -1.15863782
     atom    7 type  2   force =     1.62867073    2.13417513    1.16025993
     atom    8 type  2   force =     1.03476624   -2.47733336    1.15980976
     atom    9 type  2   force =    -2.66377036    0.34248268    1.15863782
     The core correction contribution to forces
     atom    1 type  1   force =     0.00000000    0.00000000    0.00000000
     atom    2 type  1   force =     0.00000000    0.00000000    0.00000000
     atom    3 type  1   force =     0.00000000    0.00000000    0.00000000
     atom    4 type  2   force =    -0.00000583    0.00001401    0.00000969
     atom    5 type  2   force =    -0.00000917   -0.00001203    0.00000973
     atom    6 type  2   force =     0.00001491   -0.00000186    0.00000982
     atom    7 type  2   force =    -0.00000583   -0.00001401   -0.00000969
     atom    8 type  2   force =    -0.00000917    0.00001203   -0.00000973
     atom    9 type  2   force =     0.00001491    0.00000186   -0.00000982
     The Hubbard contrib.    to forces
     atom    1 type  1   force =     0.00000000    0.00000000    0.00000000
     atom    2 type  1   force =     0.00000000    0.00000000    0.00000000
     atom    3 type  1   force =     0.00000000    0.00000000    0.00000000
     atom    4 type  2   force =     0.00000000    0.00000000    0.00000000
     atom    5 type  2   force =     0.00000000    0.00000000    0.00000000
     atom    6 type  2   force =     0.00000000    0.00000000    0.00000000
     atom    7 type  2   force =     0.00000000    0.00000000    0.00000000
     atom    8 type  2   force =     0.00000000    0.00000000    0.00000000
     atom    9 type  2   force =     0.00000000    0.00000000    0.00000000
     The SCF correction term to forces
     atom    1 type  1   force =    -0.00000017   -0.00000050   -0.00000087
     atom    2 type  1   force =    -0.00000017    0.00000050    0.00000087
     atom    3 type  1   force =     0.00000151    0.00000000   -0.00000000
     atom    4 type  2   force =    -0.00000193   -0.00000026   -0.00000059
     atom    5 type  2   force =     0.00000104   -0.00000202    0.00000059
     atom    6 type  2   force =     0.00000141    0.00000222    0.00000138
     atom    7 type  2   force =    -0.00000193    0.00000026    0.00000059
     atom    8 type  2   force =     0.00000104    0.00000202   -0.00000059
     atom    9 type  2   force =     0.00000141   -0.00000222   -0.00000138

     Total force =     0.107016     Total SCF correction =     0.000006


     Computing stress (Cartesian axis) and pressure

          total   stress  (Ry/bohr**3)                   (kbar)     P=    -1688.67
  -0.01150472   0.00000000   0.00000000        -1692.40        0.00        0.00
   0.00000000  -0.01144594  -0.00000196            0.00    -1683.76       -0.29
   0.00000000  -0.00000196  -0.01148736            0.00       -0.29    -1689.85

     kinetic stress (kbar)  15124.28      0.00      0.00
                                0.00  15129.76     -0.19
                                0.00     -0.19  15099.39

     local   stress (kbar) -11217.61     -0.00      0.00
                               -0.00 -11215.23      0.12
                                0.00      0.12 -12463.24

     nonloc. stress (kbar)   2090.76      0.00      0.00
                                0.00   2092.97     -0.11
                                0.00     -0.11   2101.35

     hartree stress (kbar)   4560.95      0.00      0.00
                                0.00   4559.62     -0.08
                                0.00     -0.08   5003.97

     exc-cor stress (kbar)  -3031.25      0.00     -0.00
                                0.00  -3031.32      0.00
                               -0.00      0.00  -3029.83

     corecor stress (kbar)     -5.54     -0.00      0.00
                               -0.00     -5.54     -0.00
                                0.00     -0.00     -5.54

     ewald   stress (kbar)  -9214.00     -0.00      0.00
                               -0.00  -9214.01     -0.02
                                0.00     -0.02  -8395.95

     hubbard stress (kbar)      0.00      0.00      0.00
                                0.00      0.00      0.00
                                0.00      0.00      0.00

     DFT-D   stress (kbar)      0.00      0.00      0.00
                                0.00      0.00      0.00
                                0.00      0.00      0.00

     XDM     stress (kbar)      0.00      0.00      0.00
                                0.00      0.00      0.00
                                0.00      0.00      0.00

     dft-nl  stress (kbar)      0.00      0.00      0.00
                                0.00      0.00      0.00
                                0.00      0.00      0.00

     TS-vdW  stress (kbar)      0.00      0.00      0.00
                                0.00      0.00      0.00
                                0.00      0.00      0.00



     Writing output data file /tmp/ceresoli/quartz.save/
 
     init_run     :      0.44s CPU      0.48s WALL (       1 calls)
     electrons    :      3.76s CPU      4.08s WALL (       1 calls)
     forces       :      0.15s CPU      0.16s WALL (       1 calls)
     stress       :      0.31s CPU      0.32s WALL (       1 calls)

     Called by init_run:
     wfcinit      :      0.24s CPU      0.26s WALL (       1 calls)
     wfcinit:atom :      0.00s CPU      0.00s WALL (      10 calls)
     wfcinit:wfcr :      0.22s CPU      0.24s WALL (      10 calls)
     potinit      :      0.06s CPU      0.07s WALL (       1 calls)
     hinit0       :      0.09s CPU      0.09s WALL (       1 calls)

     Called by electrons:
     c_bands      :      2.92s CPU      3.19s WALL (       9 calls)
     sum_band     :      0.53s CPU      0.58s WALL (       9 calls)
     v_of_rho     :      0.18s CPU      0.20s WALL (      10 calls)
     v_h          :      0.01s CPU      0.01s WALL (      10 calls)
     v_xc         :      0.21s CPU      0.22s WALL (      12 calls)
     newd         :      0.10s CPU      0.10s WALL (      10 calls)
     mix_rho      :      0.02s CPU      0.02s WALL (       9 calls)

     Called by c_bands:
     init_us_2    :      0.09s CPU      0.09s WALL (     210 calls)
     cegterg      :      2.79s CPU      3.06s WALL (      90 calls)

     Called by sum_band:
     sum_band:wei :      0.00s CPU      0.00s WALL (       9 calls)
     sum_band:loo :      0.40s CPU      0.44s WALL (       9 calls)
     sum_band:buf :      0.01s CPU      0.01s WALL (      90 calls)
     sum_band:ini :      0.04s CPU      0.04s WALL (      90 calls)
     sum_band:cal :      0.02s CPU      0.03s WALL (      90 calls)
     sum_band:bec :      0.00s CPU      0.00s WALL (      90 calls)
     addusdens    :      0.11s CPU      0.11s WALL (       9 calls)
     addusd:skk   :      0.01s CPU      0.01s WALL (       9 calls)
     addusd:dgemm :      0.03s CPU      0.03s WALL (       9 calls)
     addusd:qvan2 :      0.05s CPU      0.05s WALL (       9 calls)

     Called by *egterg:
     cdiaghg      :      0.58s CPU      0.62s WALL (     290 calls)
     cegterg:over :      0.11s CPU      0.13s WALL (     200 calls)
     cegterg:upda :      0.05s CPU      0.05s WALL (     200 calls)
     cegterg:last :      0.10s CPU      0.10s WALL (     200 calls)
     cdiaghg:chol :      0.04s CPU      0.04s WALL (     290 calls)
     cdiaghg:inve :      0.01s CPU      0.01s WALL (     290 calls)
     cdiaghg:para :      0.07s CPU      0.07s WALL (     580 calls)
     h_psi        :      2.05s CPU      2.28s WALL (     300 calls)
     s_psi        :      0.05s CPU      0.06s WALL (     300 calls)
     g_psi        :      0.01s CPU      0.01s WALL (     200 calls)

     Called by h_psi:
     h_psi:calbec :      0.08s CPU      0.09s WALL (     300 calls)
     vloc_psi     :      1.90s CPU      2.11s WALL (     300 calls)
     add_vuspsi   :      0.06s CPU      0.06s WALL (     300 calls)

     General routines
     calbec       :      0.12s CPU      0.13s WALL (     440 calls)
     fft          :      0.12s CPU      0.12s WALL (     153 calls)
     ffts         :      0.00s CPU      0.00s WALL (      19 calls)
     fftw         :      2.07s CPU      2.29s WALL (   16548 calls)
     interpolate  :      0.01s CPU      0.01s WALL (      10 calls)
 
     Parallel routines
     fft_scatt_xy :      0.20s CPU      0.22s WALL (   16720 calls)
     fft_scatt_yz :      0.66s CPU      0.74s WALL (   16720 calls)
 
     PWSCF        :      4.73s CPU      5.11s WALL

 
   This run was terminated on:  13:19:55  19Nov2020            

=------------------------------------------------------------------------------=
   JOB DONE.
=------------------------------------------------------------------------------=
