<PP_INFO>
Generated using "atomic" code by A. Dal Corso  (espresso distribution)     
Author: dceresoli   Generation date:  6Mar2009                             
B                                                                          
    0        The Pseudo was generated with a Non-Relativistic Calculation
    1 1.5000000E+00    L component and cutoff radius for Local Potential
nl pn  l   occ               Rcut            Rcut US             E pseu
2S  1  0  2.00      1.50000000000      1.50000000000     -0.69373149503
2P  2  1  1.00      1.50000000000      1.50000000000     -0.26524677300
</PP_INFO>


<PP_HEADER>
   0                   Version Number
   B                   Element
   NC                  Norm - Conserving pseudopotential
    F                  Nonlinear Core Correction
 SLA  PW   PBX  PBC    PBE  Exchange-Correlation functional
    3.00000000000      Z valence
   -5.17947165251      Total energy
      0.000      0.000 Suggested cutoff for wfc and rho
    1                  Max angular momentum component
 1059                  Number of points in mesh
    2    1             Number of Wavefunctions, Number of Projectors
 Wavefunctions         nl  l   occ
                       2S  0  2.00
                       2P  1  1.00
</PP_HEADER>


<PP_MESH>
  <PP_R>
  1.82376393111E-04  1.84670405734E-04  1.86993273483E-04  1.89345359312E-04
  1.91727030739E-04  1.94138659904E-04  1.96580623630E-04  1.99053303478E-04
  2.01557085810E-04  2.04092361846E-04  2.06659527730E-04  2.09258984584E-04
  2.11891138582E-04  2.14556401000E-04  2.17255188293E-04  2.19987922151E-04
  2.22755029569E-04  2.25556942914E-04  2.28394099990E-04  2.31266944109E-04
  2.34175924158E-04  2.37121494672E-04  2.40104115902E-04  2.43124253889E-04
  2.46182380535E-04  2.49278973678E-04  2.52414517169E-04  2.55589500941E-04
  2.58804421093E-04  2.62059779962E-04  2.65356086205E-04  2.68693854877E-04
  2.72073607510E-04  2.75495872197E-04  2.78961183675E-04  2.82470083406E-04
  2.86023119662E-04  2.89620847612E-04  2.93263829409E-04  2.96952634275E-04
  3.00687838596E-04  3.04470026002E-04  3.08299787470E-04  3.12177721406E-04
  3.16104433747E-04  3.20080538049E-04  3.24106655586E-04  3.28183415447E-04
  3.32311454635E-04  3.36491418163E-04  3.40723959161E-04  3.45009738970E-04
  3.49349427252E-04  3.53743702094E-04  3.58193250108E-04  3.62698766547E-04
  3.67260955406E-04  3.71880529536E-04  3.76558210756E-04  3.81294729962E-04
  3.86090827246E-04  3.90947252006E-04  3.95864763071E-04  4.00844128810E-04
  4.05886127259E-04  4.10991546242E-04  4.16161183490E-04  4.21395846770E-04
  4.26696354008E-04  4.32063533419E-04  4.37498223637E-04  4.43001273842E-04
  4.48573543897E-04  4.54215904481E-04  4.59929237225E-04  4.65714434848E-04
  4.71572401298E-04  4.77504051896E-04  4.83510313473E-04  4.89592124520E-04
  4.95750435333E-04  5.01986208160E-04  5.08300417354E-04  5.14694049522E-04
  5.21168103682E-04  5.27723591418E-04  5.34361537040E-04  5.41082977739E-04
  5.47888963754E-04  5.54780558534E-04  5.61758838905E-04  5.68824895238E-04
  5.75979831618E-04  5.83224766018E-04  5.90560830475E-04  5.97989171263E-04
  6.05510949075E-04  6.13127339205E-04  6.20839531730E-04  6.28648731694E-04
  6.36556159302E-04  6.44563050105E-04  6.52670655195E-04  6.60880241404E-04
  6.69193091494E-04  6.77610504367E-04  6.86133795260E-04  6.94764295954E-04
  7.03503354982E-04  7.12352337842E-04  7.21312627203E-04  7.30385623130E-04
  7.39572743297E-04  7.48875423209E-04  7.58295116430E-04  7.67833294805E-04
  7.77491448695E-04  7.87271087206E-04  7.97173738426E-04  8.07200949664E-04
  8.17354287693E-04  8.27635338992E-04  8.38045709997E-04  8.48587027349E-04
  8.59260938150E-04  8.70069110222E-04  8.81013232362E-04  8.92095014612E-04
  9.03316188523E-04  9.14678507426E-04  9.26183746707E-04  9.37833704082E-04
  9.49630199882E-04  9.61575077333E-04  9.73670202846E-04  9.85917466309E-04
  9.98318781382E-04  1.01087608580E-03  1.02359134165E-03  1.03646653574E-03
  1.04950367984E-03  1.06270481101E-03  1.07607199198E-03  1.08960731139E-03
  1.10331288415E-03  1.11719085180E-03  1.13124338279E-03  1.14547267286E-03
  1.15988094537E-03  1.17447045163E-03  1.18924347129E-03  1.20420231267E-03
  1.21934931310E-03  1.23468683935E-03  1.25021728793E-03  1.26594308550E-03
  1.28186668925E-03  1.29799058728E-03  1.31431729899E-03  1.33084937544E-03
  1.34758939982E-03  1.36453998778E-03  1.38170378789E-03  1.39908348203E-03
  1.41668178581E-03  1.43450144900E-03  1.45254525596E-03  1.47081602608E-03
  1.48931661418E-03  1.50804991105E-03  1.52701884377E-03  1.54622637630E-03
  1.56567550985E-03  1.58536928337E-03  1.60531077408E-03  1.62550309786E-03
  1.64594940980E-03  1.66665290469E-03  1.68761681749E-03  1.70884442385E-03
  1.73033904062E-03  1.75210402640E-03  1.77414278199E-03  1.79645875100E-03
  1.81905542034E-03  1.84193632079E-03  1.86510502755E-03  1.88856516075E-03
  1.91232038611E-03  1.93637441542E-03  1.96073100716E-03  1.98539396712E-03
  2.01036714893E-03  2.03565445469E-03  2.06125983560E-03  2.08718729255E-03
  2.11344087677E-03  2.14002469042E-03  2.16694288729E-03  2.19419967339E-03
  2.22179930765E-03  2.24974610257E-03  2.27804442490E-03  2.30669869631E-03
  2.33571339408E-03  2.36509305182E-03  2.39484226016E-03  2.42496566748E-03
  2.45546798061E-03  2.48635396562E-03  2.51762844849E-03  2.54929631592E-03
  2.58136251610E-03  2.61383205941E-03  2.64671001931E-03  2.68000153303E-03
  2.71371180244E-03  2.74784609484E-03  2.78240974379E-03  2.81740814992E-03
  2.85284678180E-03  2.88873117680E-03  2.92506694192E-03  2.96185975470E-03
  2.99911536410E-03  3.03683959137E-03  3.07503833100E-03  3.11371755164E-03
  3.15288329697E-03  3.19254168674E-03  3.23269891763E-03  3.27336126431E-03
  3.31453508035E-03  3.35622679924E-03  3.39844293539E-03  3.44119008517E-03
  3.48447492790E-03  3.52830422692E-03  3.57268483066E-03  3.61762367368E-03
  3.66312777775E-03  3.70920425299E-03  3.75586029894E-03  3.80310320570E-03
  3.85094035508E-03  3.89937922172E-03  3.94842737430E-03  3.99809247669E-03
  4.04838228916E-03  4.09930466960E-03  4.15086757474E-03  4.20307906138E-03
  4.25594728768E-03  4.30948051439E-03  4.36368710621E-03  4.41857553301E-03
  4.47415437123E-03  4.53043230518E-03  4.58741812839E-03  4.64512074501E-03
  4.70354917120E-03  4.76271253652E-03  4.82262008536E-03  4.88328117841E-03
  4.94470529407E-03  5.00690202999E-03  5.06988110454E-03  5.13365235834E-03
  5.19822575575E-03  5.26361138652E-03  5.32981946727E-03  5.39686034316E-03
  5.46474448946E-03  5.53348251320E-03  5.60308515484E-03  5.67356328994E-03
  5.74492793085E-03  5.81719022843E-03  5.89036147382E-03  5.96445310018E-03
  6.03947668446E-03  6.11544394927E-03  6.19236676464E-03  6.27025714991E-03
  6.34912727561E-03  6.42898946538E-03  6.50985619782E-03  6.59174010854E-03
  6.67465399207E-03  6.75861080385E-03  6.84362366233E-03  6.92970585093E-03
  7.01687082017E-03  7.10513218975E-03  7.19450375069E-03  7.28499946747E-03
  7.37663348025E-03  7.46942010701E-03  7.56337384587E-03  7.65850937727E-03
  7.75484156634E-03  7.85238546519E-03  7.95115631524E-03  8.05116954965E-03
  8.15244079567E-03  8.25498587716E-03  8.35882081698E-03  8.46396183957E-03
  8.57042537341E-03  8.67822805365E-03  8.78738672468E-03  8.89791844277E-03
  9.00984047871E-03  9.12317032056E-03  9.23792567634E-03  9.35412447679E-03
  9.47178487823E-03  9.59092526532E-03  9.71156425400E-03  9.83372069435E-03
  9.95741367357E-03  1.00826625189E-02  1.02094868008E-02  1.03379063358E-02
  1.04679411897E-02  1.05996116807E-02  1.07329383825E-02  1.08679421279E-02
  1.10046440113E-02  1.11430653927E-02  1.12832279008E-02  1.14251534361E-02
  1.15688641750E-02  1.17143825724E-02  1.18617313659E-02  1.20109335791E-02
  1.21620125250E-02  1.23149918102E-02  1.24698953379E-02  1.26267473122E-02
  1.27855722413E-02  1.29463949422E-02  1.31092405436E-02  1.32741344905E-02
  1.34411025479E-02  1.36101708050E-02  1.37813656789E-02  1.39547139193E-02
  1.41302426121E-02  1.43079791840E-02  1.44879514069E-02  1.46701874015E-02
  1.48547156429E-02  1.50415649637E-02  1.52307645597E-02  1.54223439937E-02
  1.56163332002E-02  1.58127624906E-02  1.60116625573E-02  1.62130644789E-02
  1.64169997248E-02  1.66235001603E-02  1.68325980515E-02  1.70443260704E-02
  1.72587172999E-02  1.74758052391E-02  1.76956238084E-02  1.79182073550E-02
  1.81435906579E-02  1.83718089337E-02  1.86028978421E-02  1.88368934912E-02
  1.90738324431E-02  1.93137517202E-02  1.95566888103E-02  1.98026816728E-02
  2.00517687446E-02  2.03039889460E-02  2.05593816871E-02  2.08179868733E-02
  2.10798449124E-02  2.13449967201E-02  2.16134837270E-02  2.18853478846E-02
  2.21606316725E-02  2.24393781041E-02  2.27216307342E-02  2.30074336653E-02
  2.32968315547E-02  2.35898696215E-02  2.38865936533E-02  2.41870500141E-02
  2.44912856506E-02  2.47993481003E-02  2.51112854986E-02  2.54271465864E-02
  2.57469807176E-02  2.60708378668E-02  2.63987686376E-02  2.67308242696E-02
  2.70670566473E-02  2.74075183077E-02  2.77522624486E-02  2.81013429369E-02
  2.84548143173E-02  2.88127318203E-02  2.91751513712E-02  2.95421295990E-02
  2.99137238445E-02  3.02899921703E-02  3.06709933690E-02  3.10567869728E-02
  3.14474332627E-02  3.18429932781E-02  3.22435288260E-02  3.26491024908E-02
  3.30597776443E-02  3.34756184554E-02  3.38966898999E-02  3.43230577712E-02
  3.47547886901E-02  3.51919501154E-02  3.56346103546E-02  3.60828385741E-02
  3.65367048105E-02  3.69962799815E-02  3.74616358964E-02  3.79328452681E-02
  3.84099817242E-02  3.88931198179E-02  3.93823350408E-02  3.98777038337E-02
  4.03793035989E-02  4.08872127125E-02  4.14015105362E-02  4.19222774302E-02
  4.24495947653E-02  4.29835449360E-02  4.35242113730E-02  4.40716785566E-02
  4.46260320297E-02  4.51873584110E-02  4.57557454090E-02  4.63312818354E-02
  4.69140576188E-02  4.75041638191E-02  4.81016926417E-02  4.87067374516E-02
  4.93193927883E-02  4.99397543805E-02  5.05679191609E-02  5.12039852816E-02
  5.18480521292E-02  5.25002203404E-02  5.31605918178E-02  5.38292697458E-02
  5.45063586068E-02  5.51919641972E-02  5.58861936443E-02  5.65891554228E-02
  5.73009593720E-02  5.80217167127E-02  5.87515400647E-02  5.94905434643E-02
  6.02388423824E-02  6.09965537422E-02  6.17637959376E-02  6.25406888518E-02
  6.33273538758E-02  6.41239139277E-02  6.49304934717E-02  6.57472185373E-02
  6.65742167396E-02  6.74116172987E-02  6.82595510602E-02  6.91181505154E-02
  6.99875498222E-02  7.08678848261E-02  7.17592930812E-02  7.26619138718E-02
  7.35758882343E-02  7.45013589790E-02  7.54384707126E-02  7.63873698608E-02
  7.73482046909E-02  7.83211253354E-02  7.93062838150E-02  8.03038340628E-02
  8.13139319481E-02  8.23367353007E-02  8.33724039357E-02  8.44210996784E-02
  8.54829863897E-02  8.65582299916E-02  8.76469984930E-02  8.87494620162E-02
  8.98657928234E-02  9.09961653436E-02  9.21407561998E-02  9.32997442366E-02
  9.44733105482E-02  9.56616385068E-02  9.68649137911E-02  9.80833244152E-02
  9.93170607583E-02  1.00566315594E-01  1.01831284122E-01  1.03112163994E-01
  1.04409155352E-01  1.05722460853E-01  1.07052285704E-01  1.08398837692E-01
  1.09762327219E-01  1.11142967333E-01  1.12540973761E-01  1.13956564946E-01
  1.15389962076E-01  1.16841389122E-01  1.18311072873E-01  1.19799242970E-01
  1.21306131943E-01  1.22831975245E-01  1.24377011293E-01  1.25941481502E-01
  1.27525630324E-01  1.29129705286E-01  1.30753957026E-01  1.32398639338E-01
  1.34064009207E-01  1.35750326850E-01  1.37457855758E-01  1.39186862736E-01
  1.40937617944E-01  1.42710394941E-01  1.44505470728E-01  1.46323125789E-01
  1.48163644136E-01  1.50027313354E-01  1.51914424645E-01  1.53825272874E-01
  1.55760156614E-01  1.57719378196E-01  1.59703243752E-01  1.61712063264E-01
  1.63746150616E-01  1.65805823636E-01  1.67891404154E-01  1.70003218045E-01
  1.72141595285E-01  1.74306869999E-01  1.76499380517E-01  1.78719469422E-01
  1.80967483607E-01  1.83243774330E-01  1.85548697266E-01  1.87882612563E-01
  1.90245884900E-01  1.92638883544E-01  1.95061982406E-01  1.97515560099E-01
  2.00000000000E-01  2.02515690308E-01  2.05063024105E-01  2.07642399416E-01
  2.10254219275E-01  2.12898891784E-01  2.15576830177E-01  2.18288452889E-01
  2.21034183615E-01  2.23814451383E-01  2.26629690613E-01  2.29480341194E-01
  2.32366848546E-01  2.35289663690E-01  2.38249243322E-01  2.41246049884E-01
  2.44280551632E-01  2.47353222713E-01  2.50464543238E-01  2.53614999358E-01
  2.56805083338E-01  2.60035293634E-01  2.63306134974E-01  2.66618118433E-01
  2.69971761515E-01  2.73367588235E-01  2.76806129196E-01  2.80287921678E-01
  2.83813509719E-01  2.87383444197E-01  2.90998282924E-01  2.94658590724E-01
  2.98364939528E-01  3.02117908462E-01  3.05918083933E-01  3.09766059727E-01
  3.13662437098E-01  3.17607824863E-01  3.21602839497E-01  3.25648105229E-01
  3.29744254140E-01  3.33891926262E-01  3.38091769676E-01  3.42344440617E-01
  3.46650603573E-01  3.51010931392E-01  3.55426105383E-01  3.59896815426E-01
  3.64423760078E-01  3.69007646685E-01  3.73649191486E-01  3.78349119735E-01
  3.83108165803E-01  3.87927073301E-01  3.92806595194E-01  3.97747493916E-01
  4.02750541494E-01  4.07816519663E-01  4.12946219993E-01  4.18140444010E-01
  4.23400003323E-01  4.28725719747E-01  4.34118425437E-01  4.39578963014E-01
  4.45108185698E-01  4.50706957443E-01  4.56376153066E-01  4.62116658392E-01
  4.67929370385E-01  4.73815197295E-01  4.79775058793E-01  4.85809886121E-01
  4.91920622231E-01  4.98108221940E-01  5.04373652072E-01  5.10717891613E-01
  5.17141931863E-01  5.23646776593E-01  5.30233442197E-01  5.36902957854E-01
  5.43656365692E-01  5.50494720942E-01  5.57419092113E-01  5.64430561151E-01
  5.71530223613E-01  5.78719188834E-01  5.85998580107E-01  5.93369534849E-01
  6.00833204789E-01  6.08390756140E-01  6.16043369784E-01  6.23792241457E-01
  6.31638581938E-01  6.39583617232E-01  6.47628588768E-01  6.55774753588E-01
  6.64023384547E-01  6.72375770512E-01  6.80833216558E-01  6.89397044180E-01
  6.98068591492E-01  7.06849213442E-01  7.15740282020E-01  7.24743186473E-01
  7.33859333524E-01  7.43090147588E-01  7.52437071000E-01  7.61901564235E-01
  7.71485106139E-01  7.81189194161E-01  7.91015344584E-01  8.00965092764E-01
  8.11039993369E-01  8.21241620623E-01  8.31571568551E-01  8.42031451229E-01
  8.52622903034E-01  8.63347578902E-01  8.74207154586E-01  8.85203326916E-01
  8.96337814068E-01  9.07612355826E-01  9.19028713861E-01  9.30588672003E-01
  9.42294036518E-01  9.54146636394E-01  9.66148323622E-01  9.78300973492E-01
  9.90606484879E-01  1.00306678054E+00  1.01568380744E+00  1.02845953699E+00
  1.04139596544E+00  1.05449511412E+00  1.06775902981E+00  1.08118978503E+00
  1.09478947835E+00  1.10856023475E+00  1.12250420594E+00  1.13662357070E+00
  1.15092053520E+00  1.16539733338E+00  1.18005622726E+00  1.19489950733E+00
  1.20992949288E+00  1.22514853238E+00  1.24055900382E+00  1.25616331513E+00
  1.27196390452E+00  1.28796324085E+00  1.30416382407E+00  1.32056818553E+00
  1.33717888846E+00  1.35399852831E+00  1.37102973318E+00  1.38827516424E+00
  1.40573751612E+00  1.42341951734E+00  1.44132393076E+00  1.45945355398E+00
  1.47781121979E+00  1.49639979660E+00  1.51522218893E+00  1.53428133780E+00
  1.55358022126E+00  1.57312185479E+00  1.59290929181E+00  1.61294562414E+00
  1.63323398251E+00  1.65377753702E+00  1.67457949763E+00  1.69564311469E+00
  1.71697167944E+00  1.73856852450E+00  1.76043702444E+00  1.78258059624E+00
  1.80500269989E+00  1.82770683888E+00  1.85069656078E+00  1.87397545779E+00
  1.89754716727E+00  1.92141537236E+00  1.94558380251E+00  1.97005623409E+00
  1.99483649096E+00  2.01992844510E+00  2.04533601716E+00  2.07106317713E+00
  2.09711394495E+00  2.12349239108E+00  2.15020263722E+00  2.17724885689E+00
  2.20463527613E+00  2.23236617411E+00  2.26044588386E+00  2.28887879287E+00
  2.31766934384E+00  2.34682203537E+00  2.37634142262E+00  2.40623211805E+00
  2.43649879214E+00  2.46714617413E+00  2.49817905272E+00  2.52960227688E+00
  2.56142075653E+00  2.59363946339E+00  2.62626343170E+00  2.65929775901E+00
  2.69274760700E+00  2.72661820229E+00  2.76091483721E+00  2.79564287070E+00
  2.83080772908E+00  2.86641490692E+00  2.90246996792E+00  2.93897854576E+00
  2.97594634497E+00  3.01337914186E+00  3.05128278537E+00  3.08966319802E+00
  3.12852637684E+00  3.16787839426E+00  3.20772539913E+00  3.24807361762E+00
  3.28892935422E+00  3.33029899272E+00  3.37218899722E+00  3.41460591311E+00
  3.45755636811E+00  3.50104707334E+00  3.54508482429E+00  3.58967650196E+00
  3.63482907389E+00  3.68054959525E+00  3.72684520998E+00  3.77372315185E+00
  3.82119074565E+00  3.86925540827E+00  3.91792464992E+00  3.96720607527E+00
  4.01710738464E+00  4.06763637521E+00  4.11880094224E+00  4.17060908030E+00
  4.22306888451E+00  4.27618855182E+00  4.32997638230E+00  4.38444078040E+00
  4.43959025629E+00  4.49543342719E+00  4.55197901871E+00  4.60923586621E+00
  4.66721291619E+00  4.72591922768E+00  4.78536397368E+00  4.84555644252E+00
  4.90650603942E+00  4.96822228787E+00  5.03071483116E+00  5.09399343388E+00
  5.15806798344E+00  5.22294849161E+00  5.28864509611E+00  5.35516806217E+00
  5.42252778413E+00  5.49073478709E+00  5.55979972853E+00  5.62973339999E+00
  5.70054672875E+00  5.77225077954E+00  5.84485675625E+00  5.91837600372E+00
  5.99282000948E+00  6.06820040556E+00  6.14452897030E+00  6.22181763019E+00
  6.30007846175E+00  6.37932369338E+00  6.45956570732E+00  6.54081704155E+00
  6.62309039174E+00  6.70639861328E+00  6.79075472325E+00  6.87617190246E+00
  6.96266349752E+00  7.05024302292E+00  7.13892416313E+00  7.22872077477E+00
  7.31964688874E+00  7.41171671242E+00  7.50494463192E+00  7.59934521429E+00
  7.69493320981E+00  7.79172355429E+00  7.88973137144E+00  7.98897197516E+00
  8.08946087201E+00  8.19121376358E+00  8.29424654897E+00  8.39857532725E+00
  8.50421640001E+00  8.61118627389E+00  8.71950166314E+00  8.82917949227E+00
  8.94023689866E+00  9.05269123525E+00  9.16656007327E+00  9.28186120494E+00
  9.39861264632E+00  9.51683264004E+00  9.63653965822E+00  9.75775240533E+00
  9.88048982111E+00  1.00047710835E+01  1.01306156118E+01  1.02580430693E+01
  1.03870733670E+01  1.05177266660E+01  1.06500233811E+01  1.07839841842E+01
  1.09196300066E+01  1.10569820435E+01  1.11960617563E+01  1.13368908766E+01
  1.14794914091E+01  1.16238856355E+01  1.17700961177E+01  1.19181457013E+01
  1.20680575195E+01  1.22198549962E+01  1.23735618501E+01  1.25292020982E+01
  1.26868000596E+01  1.28463803594E+01  1.30079679322E+01  1.31715880265E+01
  1.33372662082E+01  1.35050283649E+01  1.36749007097E+01  1.38469097856E+01
  1.40210824693E+01  1.41974459757E+01  1.43760278619E+01  1.45568560317E+01
  1.47399587399E+01  1.49253645966E+01  1.51131025719E+01  1.53032020003E+01
  1.54956925851E+01  1.56906044033E+01  1.58879679105E+01  1.60878139449E+01
  1.62901737330E+01  1.64950788939E+01  1.67025614444E+01  1.69126538041E+01
  1.71253888004E+01  1.73407996736E+01  1.75589200820E+01  1.77797841073E+01
  1.80034262601E+01  1.82298814849E+01  1.84591851657E+01  1.86913731318E+01
  1.89264816630E+01  1.91645474954E+01  1.94056078274E+01  1.96497003251E+01
  1.98968631284E+01  2.01471348571E+01  2.04005546165E+01  2.06571620042E+01
  2.09169971154E+01  2.11801005500E+01  2.14465134184E+01  2.17162773482E+01
  2.19894344904E+01  2.22660275266E+01  2.25460996748E+01  2.28296946970E+01
  2.31168569054E+01  2.34076311698E+01  2.37020629241E+01  2.40001981740E+01
  2.43020835037E+01  2.46077660834E+01  2.49172936766E+01  2.52307146477E+01
  2.55480779692E+01  2.58694332299E+01  2.61948306422E+01  2.65243210500E+01
  2.68579559370E+01  2.71957874342E+01  2.75378683286E+01  2.78842520709E+01
  2.82349927843E+01  2.85901452728E+01  2.89497650296E+01  2.93139082462E+01
  2.96826318205E+01  3.00559933665E+01  3.04340512225E+01  3.08168644610E+01
  3.12044928973E+01  3.15969970990E+01  3.19944383959E+01  3.23968788888E+01
  3.28043814600E+01  3.32170097825E+01  3.36348283304E+01  3.40579023886E+01
  3.44862980634E+01  3.49200822924E+01  3.53593228553E+01  3.58040883843E+01
  3.62544483750E+01  3.67104731970E+01  3.71722341052E+01  3.76398032505E+01
  3.81132536917E+01  3.85926594063E+01  3.90780953025E+01  3.95696372306E+01
  4.00673619950E+01  4.05713473662E+01  4.10816720930E+01  4.15984159146E+01
  4.21216595733E+01  4.26514848271E+01  4.31879744621E+01  4.37312123060E+01
  4.42812832408E+01  4.48382732162E+01  4.54022692631E+01  4.59733595068E+01
  4.65516331815E+01  4.71371806436E+01  4.77300933861E+01  4.83304640528E+01
  4.89383864528E+01  4.95539555753E+01  5.01772676042E+01  5.08084199332E+01
  5.14475111812E+01  5.20946412074E+01  5.27499111274E+01  5.34134233283E+01
  5.40852814852E+01  5.47655905775E+01  5.54544569046E+01  5.61519881035E+01
  5.68582931648E+01  5.75734824500E+01  5.82976677091E+01  5.90309620973E+01
  5.97734801934E+01  6.05253380174E+01  6.12866530487E+01  6.20575442441E+01
  6.28381320571E+01  6.36285384561E+01  6.44288869437E+01  6.52393025759E+01
  6.60599119819E+01  6.68908433836E+01  6.77322266156E+01  6.85841931458E+01
  6.94468760957E+01  7.03204102614E+01  7.12049321342E+01  7.21005799225E+01
  7.30074935731E+01  7.39258147931E+01  7.48556870721E+01  7.57972557044E+01
  7.67506678122E+01  7.77160723680E+01  7.86936202182E+01  7.96834641067E+01
  8.06857586985E+01  8.17006606044E+01  8.27283284046E+01  8.37689226745E+01
  8.48226060090E+01  8.58895430482E+01  8.69699005033E+01  8.80638471822E+01
  8.91715540165E+01  9.02931940875E+01  9.14289426538E+01  9.25789771784E+01
  9.37434773565E+01  9.49226251437E+01  9.61166047841E+01  9.73256028397E+01
  9.85498082187E+01  9.97894122057E+01  1.01044608491E+02
  </PP_R>
  <PP_RAB>
  2.27970491389E-06  2.30838007167E-06  2.33741591854E-06  2.36681699140E-06
  2.39658788424E-06  2.42673324880E-06  2.45725779537E-06  2.48816629347E-06
  2.51946357262E-06  2.55115452308E-06  2.58324409662E-06  2.61573730731E-06
  2.64863923227E-06  2.68195501250E-06  2.71568985366E-06  2.74984902688E-06
  2.78443786961E-06  2.81946178642E-06  2.85492624987E-06  2.89083680136E-06
  2.92719905198E-06  2.96401868340E-06  3.00130144878E-06  3.03905317361E-06
  3.07727975668E-06  3.11598717098E-06  3.15518146461E-06  3.19486876177E-06
  3.23505526366E-06  3.27574724953E-06  3.31695107757E-06  3.35867318596E-06
  3.40092009387E-06  3.44369840246E-06  3.48701479594E-06  3.53087604257E-06
  3.57528899577E-06  3.62026059515E-06  3.66579786761E-06  3.71190792844E-06
  3.75859798244E-06  3.80587532503E-06  3.85374734337E-06  3.90222151758E-06
  3.95130542184E-06  4.00100672561E-06  4.05133319482E-06  4.10229269309E-06
  4.15389318293E-06  4.20614272704E-06  4.25904948951E-06  4.31262173712E-06
  4.36686784065E-06  4.42179627617E-06  4.47741562635E-06  4.53373458184E-06
  4.59076194257E-06  4.64850661920E-06  4.70697763445E-06  4.76618412453E-06
  4.82613534057E-06  4.88684065008E-06  4.94830953838E-06  5.01055161012E-06
  5.07357659074E-06  5.13739432802E-06  5.20201479362E-06  5.26744808462E-06
  5.33370442509E-06  5.40079416774E-06  5.46872779546E-06  5.53751592302E-06
  5.60716929871E-06  5.67769880602E-06  5.74911546531E-06  5.82143043559E-06
  5.89465501623E-06  5.96880064870E-06  6.04387891841E-06  6.11990155650E-06
  6.19688044167E-06  6.27482760200E-06  6.35375521692E-06  6.43367561902E-06
  6.51460129602E-06  6.59654489273E-06  6.67951921300E-06  6.76353722173E-06
  6.84861204692E-06  6.93475698167E-06  7.02198548631E-06  7.11031119047E-06
  7.19974789522E-06  7.29030957523E-06  7.38201038093E-06  7.47486464078E-06
  7.56888686344E-06  7.66409174007E-06  7.76049414662E-06  7.85810914618E-06
  7.95695199127E-06  8.05703812631E-06  8.15838318994E-06  8.26100301754E-06
  8.36491364368E-06  8.47013130459E-06  8.57667244074E-06  8.68455369942E-06
  8.79379193728E-06  8.90440422302E-06  9.01640784004E-06  9.12982028913E-06
  9.24465929121E-06  9.36094279011E-06  9.47868895537E-06  9.59791618507E-06
  9.71864310869E-06  9.84088859007E-06  9.96467173032E-06  1.00900118708E-05
  1.02169285962E-05  1.03454417374E-05  1.04755713750E-05  1.06073378419E-05
  1.07407617269E-05  1.08758638778E-05  1.10126654045E-05  1.11511876826E-05
  1.12914523565E-05  1.14334813428E-05  1.15772968338E-05  1.17229213010E-05
  1.18703774985E-05  1.20196884667E-05  1.21708775356E-05  1.23239683289E-05
  1.24789847673E-05  1.26359510724E-05  1.27948917707E-05  1.29558316968E-05
  1.31187959980E-05  1.32838101377E-05  1.34508998998E-05  1.36200913923E-05
  1.37914110519E-05  1.39648856475E-05  1.41405422849E-05  1.43184084108E-05
  1.44985118171E-05  1.46808806454E-05  1.48655433912E-05  1.50525289084E-05
  1.52418664138E-05  1.54335854919E-05  1.56277160991E-05  1.58242885687E-05
  1.60233336156E-05  1.62248823410E-05  1.64289662373E-05  1.66356171930E-05
  1.68448674977E-05  1.70567498472E-05  1.72712973486E-05  1.74885435254E-05
  1.77085223226E-05  1.79312681125E-05  1.81568156995E-05  1.83852003259E-05
  1.86164576773E-05  1.88506238881E-05  1.90877355471E-05  1.93278297038E-05
  1.95709438731E-05  1.98171160422E-05  2.00663846760E-05  2.03187887232E-05
  2.05743676226E-05  2.08331613087E-05  2.10952102186E-05  2.13605552981E-05
  2.16292380078E-05  2.19013003299E-05  2.21767847748E-05  2.24557343874E-05
  2.27381927542E-05  2.30242040099E-05  2.33138128443E-05  2.36070645094E-05
  2.39040048264E-05  2.42046801927E-05  2.45091375896E-05  2.48174245890E-05
  2.51295893616E-05  2.54456806836E-05  2.57657479450E-05  2.60898411569E-05
  2.64180109596E-05  2.67503086303E-05  2.70867860911E-05  2.74274959173E-05
  2.77724913456E-05  2.81218262822E-05  2.84755553113E-05  2.88337337039E-05
  2.91964174260E-05  2.95636631477E-05  2.99355282520E-05  3.03120708435E-05
  3.06933497577E-05  3.10794245702E-05  3.14703556061E-05  3.18662039490E-05
  3.22670314512E-05  3.26729007427E-05  3.30838752414E-05  3.35000191629E-05
  3.39213975305E-05  3.43480761855E-05  3.47801217973E-05  3.52176018739E-05
  3.56605847725E-05  3.61091397100E-05  3.65633367740E-05  3.70232469338E-05
  3.74889420512E-05  3.79604948921E-05  3.84379791376E-05  3.89214693955E-05
  3.94110412121E-05  3.99067710842E-05  4.04087364704E-05  4.09170158039E-05
  4.14316885044E-05  4.19528349905E-05  4.24805366924E-05  4.30148760646E-05
  4.35559365987E-05  4.41038028365E-05  4.46585603833E-05  4.52202959209E-05
  4.57890972218E-05  4.63650531623E-05  4.69482537367E-05  4.75387900713E-05
  4.81367544385E-05  4.87422402715E-05  4.93553421787E-05  4.99761559586E-05
  5.06047786145E-05  5.12413083700E-05  5.18858446842E-05  5.25384882673E-05
  5.31993410959E-05  5.38685064299E-05  5.45460888276E-05  5.52321941627E-05
  5.59269296404E-05  5.66304038147E-05  5.73427266048E-05  5.80640093126E-05
  5.87943646400E-05  5.95339067065E-05  6.02827510670E-05  6.10410147301E-05
  6.18088161758E-05  6.25862753749E-05  6.33735138068E-05  6.41706544792E-05
  6.49778219469E-05  6.57951423315E-05  6.66227433409E-05  6.74607542895E-05
  6.83093061182E-05  6.91685314150E-05  7.00385644356E-05  7.09195411243E-05
  7.18115991356E-05  7.27148778554E-05  7.36295184228E-05  7.45556637522E-05
  7.54934585558E-05  7.64430493659E-05  7.74045845579E-05  7.83782143738E-05
  7.93640909452E-05  8.03623683172E-05  8.13732024728E-05  8.23967513568E-05
  8.34331749008E-05  8.44826350482E-05  8.55452957792E-05  8.66213231367E-05
  8.77108852521E-05  8.88141523718E-05  8.99312968836E-05  9.10624933434E-05
  9.22079185031E-05  9.33677513377E-05  9.45421730733E-05  9.57313672159E-05
  9.69355195793E-05  9.81548183149E-05  9.93894539406E-05  1.00639619371E-04
  1.01905509946E-04  1.03187323464E-04  1.04485260212E-04  1.05799522995E-04
  1.07130317168E-04  1.08477850671E-04  1.09842334059E-04  1.11223980535E-04
  1.12623005984E-04  1.14039629007E-04  1.15474070954E-04  1.16926555960E-04
  1.18397310978E-04  1.19886565817E-04  1.21394553175E-04  1.22921508679E-04
  1.24467670920E-04  1.26033281487E-04  1.27618585010E-04  1.29223829198E-04
  1.30849264871E-04  1.32495146008E-04  1.34161729782E-04  1.35849276598E-04
  1.37558050141E-04  1.39288317409E-04  1.41040348759E-04  1.42814417952E-04
  1.44610802187E-04  1.46429782155E-04  1.48271642074E-04  1.50136669738E-04
  1.52025156563E-04  1.53937397628E-04  1.55873691724E-04  1.57834341402E-04
  1.59819653017E-04  1.61829936777E-04  1.63865506795E-04  1.65926681131E-04
  1.68013781849E-04  1.70127135063E-04  1.72267070987E-04  1.74433923991E-04
  1.76628032651E-04  1.78849739800E-04  1.81099392586E-04  1.83377342519E-04
  1.85683945536E-04  1.88019562047E-04  1.90384556997E-04  1.92779299921E-04
  1.95204165003E-04  1.97659531133E-04  2.00145781967E-04  2.02663305986E-04
  2.05212496560E-04  2.07793752003E-04  2.10407475643E-04  2.13054075879E-04
  2.15733966248E-04  2.18447565489E-04  2.21195297605E-04  2.23977591937E-04
  2.26794883224E-04  2.29647611672E-04  2.32536223027E-04  2.35461168639E-04
  2.38422905539E-04  2.41421896502E-04  2.44458610128E-04  2.47533520910E-04
  2.50647109307E-04  2.53799861825E-04  2.56992271088E-04  2.60224835916E-04
  2.63498061405E-04  2.66812459001E-04  2.70168546587E-04  2.73566848558E-04
  2.77007895906E-04  2.80492226301E-04  2.84020384177E-04  2.87592920816E-04
  2.91210394434E-04  2.94873370268E-04  2.98582420667E-04  3.02338125176E-04
  3.06141070632E-04  3.09991851254E-04  3.13891068733E-04  3.17839332330E-04
  3.21837258970E-04  3.25885473335E-04  3.29984607970E-04  3.34135303370E-04
  3.38338208092E-04  3.42593978846E-04  3.46903280607E-04  3.51266786712E-04
  3.55685178966E-04  3.60159147754E-04  3.64689392141E-04  3.69276619987E-04
  3.73921548057E-04  3.78624902129E-04  3.83387417112E-04  3.88209837160E-04
  3.93092915784E-04  3.98037415976E-04  4.03044110324E-04  4.08113781135E-04
  4.13247220554E-04  4.18445230692E-04  4.23708623749E-04  4.29038222140E-04
  4.34434858626E-04  4.39899376443E-04  4.45432629432E-04  4.51035482176E-04
  4.56708810132E-04  4.62453499768E-04  4.68270448705E-04  4.74160565852E-04