<PP_INFO>
Generated using "atomic" code by A. Dal Corso  (Quantum ESPRESSO distributi
Author: D.C.   Generation date: 24May2010                                  
B                                                                          
    1        The Pseudo was generated with a Scalar-Relativistic Calculation
    2 1.3000000E+00    L component and cutoff radius for Local Potential
nl pn  l   occ               Rcut            Rcut US             E pseu
2S  1  0  2.00      1.10000000000      1.40000000000     -0.69405508141
2S  1  0  0.00      1.10000000000      1.40000000000      0.50000000000
2P  2  1  1.00      1.10000000000      1.40000000000     -0.26512536929
2P  2  1  0.00      1.10000000000      1.40000000000      0.50000000000
3D  3  2 -2.00      1.30000000000      1.30000000000      0.15000000000
</PP_INFO>


<PP_HEADER>
   0                   Version Number
   B                   Element
   US                  Ultrasoft pseudopotential
    T                  Nonlinear Core Correction
 SLA  PW   PBX  PBC    PBE    Exchange-Correlation functional
    3.00000000000      Z valence
   -5.26179937789      Total energy
     38.582    556.123 Suggested cutoff for wfc and rho
    2                  Max angular momentum component
  661                  Number of points in mesh
    4    4             Number of Wavefunctions, Number of Projectors
 Wavefunctions         nl  l   occ
                       2S  0  2.00
                       3S  0  0.00
                       2P  1  1.00
                       3P  1  0.00
</PP_HEADER>


<PP_MESH>
  <PP_R>
  1.82376393111E-04  1.86060640641E-04  1.89819314908E-04  1.93653919432E-04
  1.97565988106E-04  2.01557085810E-04  2.05628809035E-04  2.09782786526E-04
  2.14020679928E-04  2.18344184456E-04  2.22755029569E-04  2.27254979664E-04
  2.31845834781E-04  2.36529431323E-04  2.41307642792E-04  2.46182380535E-04
  2.51155594512E-04  2.56229274077E-04  2.61405448767E-04  2.66686189123E-04
  2.72073607510E-04  2.77569858967E-04  2.83177142069E-04  2.88897699804E-04
  2.94733820471E-04  3.00687838596E-04  3.06762135865E-04  3.12959142079E-04
  3.19281336122E-04  3.25731246958E-04  3.32311454635E-04  3.39024591325E-04
  3.45873342371E-04  3.52860447367E-04  3.59988701246E-04  3.67260955406E-04
  3.74680118844E-04  3.82249159327E-04  3.89971104569E-04  3.97849043453E-04
  4.05886127259E-04  4.14085570928E-04  4.22450654347E-04  4.30984723660E-04
  4.39691192609E-04  4.48573543897E-04  4.57635330584E-04  4.66880177506E-04
  4.76311782723E-04  4.85933919005E-04  4.95750435333E-04  5.05765258446E-04
  5.15982394405E-04  5.26405930203E-04  5.37040035391E-04  5.47888963754E-04
  5.58957055007E-04  5.70248736536E-04  5.81768525163E-04  5.93521028956E-04
  6.05510949075E-04  6.17743081647E-04  6.30222319689E-04  6.42953655061E-04
  6.55942180469E-04  6.69193091494E-04  6.82711688679E-04  6.96503379642E-04
  7.10573681244E-04  7.24928221793E-04  7.39572743297E-04  7.54513103758E-04
  7.69755279522E-04  7.85305367661E-04  8.01169588418E-04  8.17354287693E-04
  8.33865939581E-04  8.50711148963E-04  8.67896654148E-04  8.85429329566E-04
  9.03316188523E-04  9.21564385999E-04  9.40181221517E-04  9.59174142059E-04
  9.78550745048E-04  9.98318781382E-04  1.01848615854E-03  1.03906094374E-03
  1.06005136717E-03  1.08146582529E-03  1.10331288415E-03  1.12560128288E-03
  1.14833993713E-03  1.17153794267E-03  1.19520457900E-03  1.21934931310E-03
  1.24398180319E-03  1.26911190258E-03  1.29474966366E-03  1.32090534186E-03
  1.34758939982E-03  1.37481251150E-03  1.40258556652E-03  1.43091967446E-03
  1.45982616936E-03  1.48931661418E-03  1.51940280552E-03  1.55009677823E-03
  1.58141081032E-03  1.61335742782E-03  1.64594940980E-03  1.67919979350E-03
  1.71312187950E-03  1.74772923709E-03  1.78303570969E-03  1.81905542034E-03
  1.85580277741E-03  1.89329248034E-03  1.93153952551E-03  1.97055921224E-03
  2.01036714893E-03  2.05097925928E-03  2.09241178869E-03  2.13468131070E-03
  2.17780473371E-03  2.22179930765E-03  2.26668263093E-03  2.31247265749E-03
  2.35918770395E-03  2.40684645694E-03  2.45546798061E-03  2.50507172421E-03
  2.55567752991E-03  2.60730564069E-03  2.65997670849E-03  2.71371180244E-03
  2.76853241730E-03  2.82446048203E-03  2.88151836862E-03  2.93972890098E-03
  2.99911536410E-03  3.05970151335E-03  3.12151158400E-03  3.18457030090E-03
  3.24890288839E-03  3.31453508035E-03  3.38149313054E-03  3.44980382307E-03
  3.51949448312E-03  3.59059298790E-03  3.66312777775E-03  3.73712786755E-03
  3.81262285832E-03  3.88964294908E-03  3.96821894887E-03  4.04838228916E-03
  4.13016503634E-03  4.21359990461E-03  4.29872026902E-03  4.38556017885E-03
  4.47415437123E-03  4.56453828502E-03  4.65674807498E-03  4.75082062626E-03
  4.84679356914E-03  4.94470529407E-03  5.04459496705E-03  5.14650254527E-03
  5.25046879314E-03  5.35653529853E-03  5.46474448946E-03  5.57513965105E-03
  5.68776494284E-03  5.80266541644E-03  5.91988703358E-03  6.03947668446E-03
  6.16148220655E-03  6.28595240367E-03  6.41293706557E-03  6.54248698780E-03
  6.67465399207E-03  6.80949094692E-03  6.94705178895E-03  7.08739154432E-03
  7.23056635081E-03  7.37663348025E-03  7.52565136144E-03  7.67767960351E-03
  7.83277901980E-03  7.99101165213E-03  8.15244079567E-03  8.31713102423E-03
  8.48514821610E-03  8.65655958039E-03  8.83143368394E-03  9.00984047871E-03
  9.19185132981E-03  9.37753904400E-03  9.56697789884E-03  9.76024367240E-03
  9.95741367357E-03  1.01585667730E-02  1.03637834345E-02  1.05731457477E-02
  1.07867374601E-02  1.10046440113E-02  1.12269525668E-02  1.14537520531E-02
  1.16851331929E-02  1.19211885418E-02  1.21620125250E-02  1.24077014755E-02
  1.26583536719E-02  1.29140693786E-02  1.31749508853E-02  1.34411025479E-02
  1.37126308309E-02  1.39896443489E-02  1.42722539113E-02  1.45605725655E-02
  1.48547156429E-02  1.51548008046E-02  1.54609480887E-02  1.57732799581E-02
  1.60919213499E-02  1.64169997248E-02  1.67486451184E-02  1.70869901935E-02
  1.74321702924E-02  1.77843234919E-02  1.81435906579E-02  1.85101155021E-02
  1.88840446393E-02  1.92655276461E-02  1.96547171209E-02  2.00517687446E-02
  2.04568413431E-02  2.08700969510E-02  2.12917008759E-02  2.17218217650E-02
  2.21606316725E-02  2.26083061281E-02  2.30650242076E-02  2.35309686044E-02
  2.40063257023E-02  2.44912856506E-02  2.49860424397E-02  2.54907939790E-02
  2.60057421757E-02  2.65310930160E-02  2.70670566473E-02  2.76138474622E-02
  2.81716841842E-02  2.87407899555E-02  2.93213924261E-02  2.99137238445E-02
  3.05180211514E-02  3.11345260736E-02  3.17634852214E-02  3.24051501868E-02
  3.30597776443E-02  3.37276294537E-02  3.44089727646E-02  3.51040801234E-02
  3.58132295823E-02  3.65367048105E-02  3.72747952079E-02  3.80277960203E-02
  3.87960084582E-02  3.95797398167E-02  4.03793035989E-02  4.11950196410E-02
  4.20272142402E-02  4.28762202854E-02  4.37423773904E-02  4.46260320297E-02
  4.55275376768E-02  4.64472549460E-02  4.73855517364E-02  4.83428033794E-02
  4.93193927883E-02  5.03157106120E-02  5.13321553907E-02  5.23691337161E-02
  5.34270603932E-02  5.45063586068E-02  5.56074600906E-02  5.67308053000E-02
  5.78768435878E-02  5.90460333848E-02  6.02388423824E-02  6.14557477202E-02
  6.26972361765E-02  6.39638043633E-02  6.52559589246E-02  6.65742167396E-02
  6.79191051290E-02  6.92911620660E-02  7.06909363918E-02  7.21189880346E-02
  7.35758882343E-02  7.50622197703E-02  7.65785771950E-02  7.81255670717E-02
  7.97038082169E-02  8.13139319481E-02  8.29565823363E-02  8.46324164635E-02
  8.63421046858E-02  8.80863309012E-02  8.98657928234E-02  9.16812022610E-02
  9.35332854020E-02  9.54227831042E-02  9.73504511920E-02  9.93170607583E-02
  1.01323398473E-01  1.03370266898E-01  1.05458484809E-01  1.07588887519E-01
  1.09762327219E-01  1.11979673313E-01  1.14241812770E-01  1.16549650475E-01
  1.18904109594E-01  1.21306131943E-01  1.23756678361E-01  1.26256729101E-01
  1.28807284217E-01  1.31409363963E-01  1.34064009207E-01  1.36772281842E-01
  1.39535265214E-01  1.42354064553E-01  1.45229807415E-01  1.48163644136E-01
  1.51156748291E-01  1.54210317161E-01  1.57325572213E-01  1.60503759592E-01
  1.63746150616E-01  1.67054042282E-01  1.70428757793E-01  1.73871647080E-01
  1.77384087343E-01  1.80967483607E-01  1.84623269277E-01  1.88352906717E-01
  1.92157887830E-01  1.96039734661E-01  2.00000000000E-01  2.04040268005E-01
  2.08162154838E-01  2.12367309309E-01  2.16657413535E-01  2.21034183615E-01
  2.25499370316E-01  2.30054759771E-01  2.34702174198E-01  2.39443472624E-01
  2.44280551632E-01  2.49215346117E-01  2.54249830064E-01  2.59386017333E-01
  2.64625962467E-01  2.69971761515E-01  2.75425552867E-01  2.80989518113E-01
  2.86665882912E-01  2.92456917887E-01  2.98364939528E-01  3.04392311124E-01
  3.10541443702E-01  3.16814796999E-01  3.23214880439E-01  3.29744254140E-01
  3.36405529940E-01  3.43201372437E-01  3.50134500059E-01  3.57207686150E-01
  3.64423760078E-01  3.71785608369E-01  3.79296175861E-01  3.86958466880E-01
  3.94775546446E-01  4.02750541494E-01  4.10886642129E-01  4.19187102899E-01
  4.27655244099E-01  4.36294453100E-01  4.45108185698E-01  4.54099967506E-01
  4.63273395356E-01  4.72632138741E-01  4.82179941283E-01  4.91920622231E-01
  5.01858077987E-01  5.11996283666E-01  5.22339294685E-01  5.32891248386E-01
  5.43656365692E-01  5.54638952793E-01  5.65843402870E-01  5.77274197854E-01
  5.88935910213E-01  6.00833204789E-01  6.12970840659E-01  6.25353673037E-01
  6.37986655223E-01  6.50874840578E-01  6.64023384547E-01  6.77437546724E-01
  6.91122692953E-01  7.05084297473E-01  7.19327945114E-01  7.33859333524E-01
  7.48684275452E-01  7.63808701073E-01  7.79238660359E-01  7.94980325499E-01
  8.11039993369E-01  8.27424088050E-01  8.44139163399E-01  8.61191905669E-01
  8.78589136184E-01  8.96337814068E-01  9.14445039028E-01  9.32918054198E-01
  9.51764249028E-01  9.70991162247E-01  9.90606484879E-01  1.01061806331E+00
  1.03103390245E+00  1.05186216889E+00  1.07311119422E+00  1.09478947835E+00
  1.11690569286E+00  1.13946868453E+00  1.16248747888E+00  1.18597128372E+00
  1.20992949288E+00  1.23437168998E+00  1.25930765221E+00  1.28474735429E+00
  1.31070097244E+00  1.33717888846E+00  1.36419169386E+00  1.39175019413E+00
  1.41986541303E+00  1.44854859703E+00  1.47781121979E+00  1.50766498673E+00
  1.53812183978E+00  1.56919396206E+00  1.60089378286E+00  1.63323398251E+00
  1.66622749754E+00  1.69988752578E+00  1.73422753169E+00  1.76926125174E+00
  1.80500269989E+00  1.84146617318E+00  1.87866625749E+00  1.91661783335E+00
  1.95533608191E+00  1.99483649096E+00  2.03513486121E+00  2.07624731255E+00
  2.11819029049E+00  2.16098057279E+00  2.20463527613E+00  2.24917186298E+00
  2.29460814856E+00  2.34096230800E+00  2.38825288357E+00  2.43649879214E+00
  2.48571933272E+00  2.53593419417E+00  2.58716346311E+00  2.63942763193E+00
  2.69274760700E+00  2.74714471702E+00  2.80264072155E+00  2.85925781974E+00
  2.91701865918E+00  2.97594634497E+00  3.03606444899E+00  3.09739701927E+00
  3.15996858965E+00  3.22380418961E+00  3.28892935422E+00  3.35537013443E+00
  3.42315310743E+00  3.49230538732E+00  3.56285463592E+00  3.63482907389E+00
  3.70825749195E+00  3.78316926245E+00  3.85959435110E+00  3.93756332895E+00
  4.01710738464E+00  4.09825833684E+00  4.18104864702E+00  4.26551143241E+00
  4.35168047924E+00  4.43959025629E+00  4.52927592864E+00  4.62077337174E+00
  4.71411918581E+00  4.80935071041E+00  4.90650603942E+00  5.00562403627E+00
  5.10674434947E+00  5.20990742850E+00  5.31515453997E+00  5.42252778413E+00
  5.53207011170E+00  5.64382534108E+00  5.75783817585E+00  5.87415422266E+00
  5.99282000948E+00  6.11388300421E+00  6.23739163366E+00  6.36339530293E+00
  6.49194441517E+00  6.62309039174E+00  6.75688569277E+00  6.89338383817E+00
  7.03263942902E+00  7.17470816941E+00  7.31964688874E+00  7.46751356441E+00
  7.61836734508E+00  7.77226857427E+00  7.92927881451E+00  8.08946087201E+00
  8.25287882172E+00  8.41959803300E+00  8.58968519575E+00  8.76320834711E+00
  8.94023689866E+00  9.12084166417E+00  9.30509488796E+00  9.49307027377E+00
  9.68484301427E+00  9.88048982111E+00  1.00800889556E+01  1.02837202601E+01
  1.04914651898E+01  1.07034068455E+01  1.09196300066E+01  1.11402211654E+01
  1.13652685611E+01  1.15948622158E+01  1.18290939700E+01  1.20680575195E+01
  1.23118484529E+01  1.25605642898E+01  1.28143045200E+01  1.30731706428E+01
  1.33372662082E+01  1.36066968579E+01  1.38815703678E+01  1.41619966909E+01
  1.44480880015E+01  1.47399587399E+01  1.50377256584E+01  1.53415078677E+01
  1.56514268846E+01  1.59676066810E+01  1.62901737330E+01  1.66192570717E+01
  1.69549883348E+01  1.72975018193E+01  1.76469345351E+01  1.80034262601E+01
  1.83671195956E+01  1.87381600239E+01  1.91166959660E+01  1.95028788414E+01
  1.98968631284E+01  2.02988064259E+01  2.07088695167E+01  2.11272164313E+01
  2.15540145143E+01  2.19894344904E+01  2.24336505336E+01  2.28868403360E+01
  2.33491851798E+01  2.38208700090E+01  2.43020835037E+01  2.47930181560E+01
  2.52938703460E+01  2.58048404215E+01  2.63261327772E+01  2.68579559370E+01
  2.74005226373E+01  2.79540499120E+01  2.85187591794E+01  2.90948763307E+01
  2.96826318205E+01  3.02822607588E+01  3.08940030052E+01  3.15181032647E+01
  3.21548111857E+01  3.28043814600E+01  3.34670739242E+01  3.41431536643E+01
  3.48328911210E+01  3.55365621987E+01  3.62544483750E+01  3.69868368141E+01
  3.77340204811E+01  3.84962982594E+01  3.92739750704E+01  4.00673619950E+01
  4.08767763986E+01  4.17025420578E+01  4.25449892899E+01  4.34044550850E+01
  4.42812832408E+01  4.51758245004E+01  4.60884366921E+01  4.70194848730E+01
  4.79693414749E+01  4.89383864528E+01  4.99270074379E+01  5.09355998917E+01
  5.19645672646E+01  5.30143211572E+01  5.40852814852E+01  5.51778766470E+01
  5.62925436951E+01  5.74297285112E+01  5.85898859845E+01  5.97734801934E+01
  6.09809845914E+01  6.22128821963E+01  6.34696657836E+01  6.47518380834E+01
  6.60599119819E+01  6.73944107260E+01  6.87558681330E+01  7.01448288040E+01
  7.15618483418E+01  7.30074935731E+01  7.44823427752E+01  7.59869859076E+01
  7.75220248476E+01  7.90880736311E+01  8.06857586985E+01  8.23157191453E+01
  8.39786069773E+01  8.56750873719E+01  8.74058389437E+01  8.91715540165E+01
  9.09729388999E+01  9.28107141719E+01  9.46856149670E+01  9.65983912706E+01
  9.85498082187E+01
  </PP_R>
  <PP_RAB>
  3.64752786222E-06  3.72121281282E-06  3.79638629816E-06  3.87307838865E-06
  3.95131976212E-06  4.03114171619E-06  4.11257618070E-06  4.19565573051E-06
  4.28041359856E-06  4.36688368912E-06  4.45510059138E-06  4.54509959328E-06
  4.63691669562E-06  4.73058862646E-06  4.82615285583E-06  4.92364761069E-06
  5.02311189025E-06  5.12458548154E-06  5.22810897535E-06  5.33372378245E-06
  5.44147215019E-06  5.55139717934E-06  5.66354284139E-06  5.77795399608E-06
  5.89467640942E-06  6.01375677191E-06  6.13524271730E-06  6.25918284158E-06
  6.38562672245E-06  6.51462493915E-06  6.64622909270E-06  6.78049182649E-06
  6.91746684743E-06  7.05720894734E-06  7.19977402492E-06  7.34521910812E-06
  7.49360237689E-06  7.64498318653E-06  7.79942209138E-06  7.95698086906E-06
  8.11772254518E-06  8.28171141856E-06  8.44901308693E-06  8.61969447319E-06
  8.79382385217E-06  8.97147087794E-06  9.15270661169E-06  9.33760355012E-06
  9.52623565447E-06  9.71867838010E-06  9.91500870667E-06  1.01153051689E-05
  1.03196478881E-05  1.05281186041E-05  1.07408007078E-05  1.09577792751E-05
  1.11791411001E-05  1.14049747307E-05  1.16353705033E-05  1.18704205791E-05
  1.21102189815E-05  1.23548616329E-05  1.26044463938E-05  1.28590731012E-05
  1.31188436094E-05  1.33838618299E-05  1.36542337736E-05  1.39300675928E-05
  1.42114736249E-05  1.44985644359E-05  1.47914548659E-05  1.50902620752E-05
  1.53951055904E-05  1.57061073532E-05  1.60233917684E-05  1.63470857539E-05
  1.66773187916E-05  1.70142229793E-05  1.73579330830E-05  1.77085865913E-05
  1.80663237705E-05  1.84312877200E-05  1.88036244303E-05  1.91834828412E-05
  1.95710149010E-05  1.99663756276E-05  2.03697231708E-05  2.07812188748E-05
  2.12010273435E-05  2.16293165058E-05  2.20662576830E-05  2.25120256576E-05
  2.29667987426E-05  2.34307588533E-05  2.39040915800E-05  2.43869862621E-05
  2.48796360638E-05  2.53822380516E-05  2.58949932732E-05  2.64181068373E-05
  2.69517879963E-05  2.74962502300E-05  2.80517113303E-05  2.86183934893E-05
  2.91965233872E-05  2.97863322837E-05  3.03880561103E-05  3.10019355645E-05
  3.16282162064E-05  3.22671485564E-05  3.29189881961E-05  3.35839958700E-05
  3.42624375900E-05  3.49545847419E-05  3.56607141938E-05  3.63811084068E-05
  3.71160555483E-05  3.78658496068E-05  3.86307905102E-05  3.94111842447E-05
  4.02073429785E-05  4.10195851856E-05  4.18482357737E-05  4.26936262141E-05
  4.35560946742E-05  4.44359861530E-05  4.53336526187E-05  4.62494531499E-05
  4.71837540790E-05  4.81369291389E-05  4.91093596123E-05  5.01014344843E-05
  5.11135505981E-05  5.21461128138E-05  5.31995341698E-05  5.42742360488E-05
  5.53706483459E-05  5.64892096407E-05  5.76303673724E-05  5.87945780196E-05
  5.99823072819E-05  6.11940302669E-05  6.24302316799E-05  6.36914060180E-05
  6.49780577678E-05  6.62907016070E-05  6.76298626108E-05  6.89960764614E-05
  7.03898896625E-05  7.18118597580E-05  7.32625555549E-05  7.47425573509E-05
  7.62524571664E-05  7.77928589815E-05  7.93643789775E-05  8.09676457832E-05
  8.26033007269E-05  8.42719980922E-05  8.59744053804E-05  8.77112035770E-05
  8.94830874247E-05  9.12907657004E-05  9.31349614996E-05  9.50164125252E-05
  9.69358713828E-05  9.88941058814E-05  1.00891899341E-04  1.02930050905E-04
  1.05009375863E-04  1.07130705971E-04  1.09294889789E-04  1.11502793021E-04
  1.13755298857E-04  1.16053308329E-04  1.18397740672E-04  1.20789533689E-04
  1.23229644131E-04  1.25719048073E-04  1.28258741311E-04  1.30849739756E-04
  1.33493079841E-04  1.36189818938E-04  1.38941035779E-04  1.41747830886E-04
  1.44611327016E-04  1.47532669605E-04  1.50513027229E-04  1.53553592070E-04
  1.56655580396E-04  1.59820233043E-04  1.63048815913E-04  1.66342620485E-04
  1.69702964322E-04  1.73131191608E-04  1.76628673679E-04  1.80196809574E-04
  1.83837026596E-04  1.87550780880E-04  1.91339557977E-04  1.95204873448E-04
  1.99148273471E-04  2.03171335460E-04  2.07275668691E-04  2.11462914953E-04
  2.15734749201E-04  2.20092880226E-04  2.24539051337E-04  2.29075041062E-04
  2.33702663858E-04  2.38423770836E-04  2.43240250501E-04  2.48154029509E-04
  2.53167073439E-04  2.58281387573E-04  2.63499017706E-04  2.68822050959E-04
  2.74252616617E-04  2.79792886979E-04  2.85445078226E-04  2.91211451310E-04
  2.97094312857E-04  3.03096016091E-04  3.09218961773E-04  3.15465599163E-04
  3.21838426998E-04  3.28339994496E-04  3.34972902369E-04  3.41739803869E-04
  3.48643405848E-04  3.55686469838E-04  3.62871813158E-04  3.70202310041E-04
  3.77680892785E-04  3.85310552922E-04  3.93094342417E-04  4.01035374891E-04
  4.09136826862E-04  4.17401939019E-04  4.25834017517E-04  4.34436435300E-04
  4.43212633449E-04  4.52166122562E-04  4.61300484152E-04  4.70619372087E-04
  4.80126514046E-04  4.89825713012E-04  4.99720848794E-04  5.09815879579E-04
  5.20114843514E-04  5.30621860320E-04  5.41341132946E-04  5.52276949244E-04
  5.63433683684E-04  5.74815799111E-04  5.86427848521E-04  5.98274476891E-04
  6.10360423028E-04  6.22690521472E-04  6.35269704428E-04  6.48103003736E-04
  6.61195552886E-04  6.74552589074E-04  6.88179455292E-04  7.02081602468E-04
  7.16264591646E-04  7.30734096211E-04  7.45495904158E-04  7.60555920406E-04
  7.75920169164E-04  7.91594796334E-04  8.07586071979E-04  8.23900392820E-04
  8.40544284803E-04  8.57524405708E-04  8.74847547809E-04  8.92520640594E-04
  9.10550753535E-04  9.28945098919E-04  9.47711034728E-04  9.66856067588E-04
  9.86387855766E-04  1.00631421224E-03  1.02664310781E-03  1.04738267432E-03
  1.06854120786E-03  1.09012717214E-03  1.11214920181E-03  1.13461610600E-03
  1.15753687176E-03  1.18092066770E-03  1.20477684765E-03  1.22911495440E-03
  1.25394472353E-03  1.27927608727E-03  1.30511917849E-03  1.33148433479E-03
  1.35838210258E-03  1.38582324132E-03  1.41381872784E-03  1.44237976069E-03
  1.47151776469E-03  1.50124439541E-03  1.53157154390E-03  1.56251134143E-03
  1.59407616434E-03  1.62627863896E-03  1.65913164673E-03  1.69264832927E-03
  1.72684209372E-03  1.76172661802E-03  1.79731585647E-03  1.83362404522E-03
  1.87066570804E-03  1.90845566208E-03  1.94700902384E-03  1.98634121517E-03
  2.02646796946E-03  2.06740533797E-03  2.10916969617E-03  2.15177775038E-03
  2.19524654438E-03  2.23959346626E-03  2.28483625540E-03  2.33099300950E-03
  2.37808219188E-03  2.42612263885E-03  2.47513356722E-03  2.52513458203E-03
  2.57614568433E-03  2.62818727926E-03  2.68128018414E-03  2.73544563685E-03
  2.79070530428E-03  2.84708129105E-03  2.90459614829E-03  2.96327288273E-03
  3.02313496582E-03  3.08420634321E-03  3.14651144427E-03  3.21007519185E-03
  3.27492301231E-03  3.34108084565E-03  3.40857515586E-03  3.47743294160E-03
  3.54768174687E-03  3.61934967214E-03  3.69246538555E-03  3.76705813434E-03
  3.84315775661E-03  3.92079469323E-03  4.00000000000E-03  4.08080536011E-03
  4.16324309677E-03  4.24734618618E-03  4.33314827070E-03  4.42068367230E-03
  4.50998740632E-03  4.60109519543E-03  4.69404348397E-03  4.78886945249E-03
  4.88561103264E-03  4.98430692235E-03  5.08499660129E-03  5.18772034666E-03
  5.29251924935E-03  5.39943523030E-03  5.50851105734E-03  5.61979036225E-03
  5.73331765824E-03  5.84913835774E-03  5.96729879057E-03  6.08784622247E-03
  6.21082887405E-03  6.33629593998E-03  6.46429760877E-03  6.59488508280E-03
  6.72811059880E-03  6.86402744874E-03  7.00269000118E-03  7.14415372300E-03
  7.28847520156E-03  7.43571216739E-03  7.58592351722E-03  7.73916933761E-03
  7.89551092892E-03  8.05501082988E-03  8.21773284258E-03  8.38374205798E-03
  8.55310488199E-03  8.72588906199E-03  8.90216371397E-03  9.08199935013E-03
  9.26546790712E-03  9.45264277482E-03  9.64359882567E-03  9.83841244463E-03
  1.00371615597E-02  1.02399256733E-02  1.04467858937E-02  1.06578249677E-02
  1.08731273138E-02  1.10927790559E-02  1.13168680574E-02  1.15454839571E-02
  1.17787182043E-02  1.20166640958E-02  1.22594168132E-02  1.25070734607E-02
  1.27597331045E-02  1.30174968116E-02  1.32804676909E-02  1.35487509345E-02
  1.38224538591E-02  1.41016859495E-02  1.43865589023E-02  1.46771866705E-02
  1.49736855090E-02  1.52761740215E-02  1.55847732072E-02  1.58996065100E-02
  1.62207998674E-02  1.65484817610E-02  1.68827832680E-02  1.72238381134E-02
  1.75717827237E-02  1.79267562814E-02  1.82889007806E-02  1.86583610840E-02
  1.90352849806E-02  1.94198232449E-02  1.98121296976E-02  2.02123612663E-02
  2.06206780489E-02  2.10372433778E-02  2.14622238845E-02  2.18957895669E-02
  2.23381138571E-02  2.27893736907E-02  2.32497495776E-02  2.37194256744E-02
  2.41985898577E-02  2.46874337995E-02  2.51861530441E-02  2.56949470857E-02
  2.62140194488E-02  2.67435777691E-02  2.72838338772E-02  2.78350038825E-02
  2.83973082606E-02  2.89709719406E-02  2.95562243957E-02  3.01532997346E-02
  3.07624367955E-02  3.13838792413E-02  3.20178756572E-02  3.26646796503E-02
  3.33245499508E-02  3.39977505155E-02  3.46845506339E-02  3.53852250349E-02
  3.61000539977E-02  3.68293234635E-02  3.75733251498E-02  3.83323566671E-02
  3.91067216381E-02  3.98967298193E-02  4.07026972243E-02  4.15249462509E-02
  4.23638058097E-02  4.32196114557E-02  4.40927055226E-02  4.49834372595E-02
  4.58921629712E-02  4.68192461599E-02  4.77650576714E-02  4.87299758428E-02
  4.97143866543E-02  5.07186838833E-02  5.17432692622E-02  5.27885526386E-02
  5.38549521400E-02  5.49428943403E-02  5.60528144309E-02  5.71851563947E-02
  5.83403731835E-02  5.95189268995E-02  6.07212889798E-02  6.19479403854E-02
  6.31993717930E-02  6.44760837921E-02  6.57785870844E-02  6.71074026886E-02
  6.84630621486E-02  6.98461077463E-02  7.12570927184E-02  7.26965814778E-02
  7.41651498390E-02  7.56633852490E-02  7.71918870220E-02  7.87512665790E-02
  8.03421476928E-02  8.19651667368E-02  8.36209729404E-02  8.53102286481E-02
  8.70336095848E-02  8.87918051258E-02  9.05855185727E-02  9.24154674349E-02
  9.42823837163E-02  9.61870142083E-02  9.81301207884E-02  1.00112480725E-01
  1.02134886989E-01  1.04198148570E-01  1.06303090799E-01  1.08450555683E-01
  1.10641402234E-01  1.12876506822E-01  1.15156763517E-01  1.17483084453E-01
  1.19856400190E-01  1.22277660084E-01  1.24747832673E-01  1.27267906059E-01
  1.29838888303E-01  1.32461807835E-01  1.35137713855E-01  1.37867676763E-01
  1.40652788580E-01  1.43494163388E-01  1.46392937775E-01  1.49350271288E-01
  1.52367346902E-01  1.55445371485E-01  1.58585576290E-01  1.61789217440E-01
  1.65057576434E-01  1.68391960660E-01  1.71793703915E-01  1.75264166942E-01
  1.78804737973E-01  1.82416833283E-01  1.86101897759E-01  1.89861405475E-01
  1.93696860285E-01  1.97609796422E-01  2.01601779112E-01  2.05674405202E-01
  2.09829303796E-01  2.14068136910E-01  2.18392600133E-01  2.22804423307E-01
  2.27305371222E-01  2.31897244316E-01  2.36581879400E-01  2.41361150389E-01
  2.46236969058E-01  2.51211285797E-01  2.56286090400E-01  2.61463412856E-01
  2.66745324164E-01  2.72133937158E-01  2.77631407355E-01  2.83239933817E-01
  2.88961760029E-01  2.94799174798E-01  3.00754513168E-01  3.06830157353E-01
  3.13028537692E-01  3.19352133620E-01  3.25803474660E-01  3.32385141433E-01
  3.39099766695E-01  3.45950036385E-01  3.52938690703E-01  3.60068525202E-01
  3.67342391913E-01  3.74763200478E-01  3.82333919320E-01  3.90057576828E-01
  3.97937262568E-01  4.05976128518E-01  4.14177390333E-01  4.22544328627E-01
  4.31080290286E-01  4.39788689808E-01  4.48673010671E-01  4.57736806721E-01
  4.66983703596E-01  4.76417400179E-01  4.86041670075E-01  4.95860363119E-01
  5.05877406920E-01  5.16096808430E-01  5.26522655543E-01  5.37159118740E-01
  5.48010452746E-01  5.59080998240E-01  5.70375183588E-01  5.81897526614E-01
  5.93652636410E-01  6.05645215176E-01  6.17880060104E-01  6.30362065293E-01
  6.43096223714E-01  6.56087629200E-01  6.69341478484E-01  6.82863073285E-01
  6.96657822420E-01  7.10731243973E-01  7.25088967501E-01  7.39736736283E-01
  7.54680409623E-01  7.69925965189E-01  7.85479501407E-01  8.01347239899E-01
  8.17535527972E-01  8.34050841156E-01  8.50899785798E-01  8.68089101700E-01
  8.85625664817E-01  9.03516490008E-01  9.21768733843E-01  9.40389697461E-01
  9.59386829497E-01  9.78767729057E-01  9.98540148759E-01  1.01871199783E+00
  1.03929134529E+00  1.06028642314E+00  1.08170562970E+00  1.10355753294E+00
  1.12585087390E+00  1.14859457022E+00  1.17179771969E+00  1.19546960387E+00
  1.21961969183E+00  1.24425764393E+00  1.26939331567E+00  1.29503676167E+00
  1.32119823964E+00  1.34788821452E+00  1.37511736266E+00  1.40289657608E+00
  1.43123696684E+00  1.46014987146E+00  1.48964685550E+00  1.51973971815E+00
  1.55044049695E+00  1.58176147262E+00  1.61371517397E+00  1.64631438291E+00
  1.67957213955E+00  1.71350174744E+00  1.74811677887E+00  1.78343108033E+00
  1.81945877800E+00  1.85621428344E+00  1.89371229934E+00  1.93196782541E+00
  1.97099616437E+00
  </PP_RAB>
</PP_MESH>


<PP_NLCC>
  5.41150162505E-02  5.41150161591E-02  5.41150160640E-02  5.41150159651E-02
  5.41150158620E-02  5.41150157548E-02  5.41150156432E-02  5.41150155270E-02
  5.41150154062E-02  5.41150152803E-02  5.41150151494E-02  5.41150150130E-02
  5.41150148712E-02  5.41150147235E-02  5.41150145698E-02  5.41150144098E-02
  5.41150142434E-02  5.41150140701E-02  5.41150138897E-02  5.41150137020E-02
  5.41150135066E-02  5.41150133033E-02  5.41150130916E-02  5.41150128713E-02
  5.41150126420E-02  5.41150124034E-02  5.41150121550E-02  5.41150118965E-02
  5.41150116275E-02  5.41150113474E-02  5.41150110559E-02  5.41150107526E-02
  5.41150104368E-02  5.41150101082E-02  5.41150097661E-02  5.41150094101E-02
  5.41150090396E-02  5.41150086540E-02  5.41150082526E-02  5.41150078348E-02
  5.41150074000E-02  5.41150069474E-02  5.41150064764E-02  5.41150059861E-02
  5.41150054758E-02  5.41150049447E-02  5.41150043920E-02  5.41150038166E-02
  5.41150032178E-02  5.41150025946E-02  5.41150019459E-02  5.41150012707E-02
  5.41150005680E-02  5.41149998366E-02  5.41149990754E-02  5.41149982831E-02
  5.41149974585E-02  5.41149966002E-02  5.41149957069E-02  5.41149947771E-02
  5.41149938094E-02  5.41149928021E-02  5.41149917538E-02  5.41149906627E-02
  5.41149895271E-02  5.41149883451E-02  5.41149871149E-02  5.41149858345E-02
  5.41149845018E-02  5.41149831148E-02  5.41149816711E-02  5.41149801685E-02
  5.41149786046E-02  5.41149769769E-02  5.41149752827E-02  5.41149735194E-02
  5.41149716841E-02  5.41149697740E-02  5.41149677859E-02  5.41149657166E-02
  5.41149635629E-02  5.41149613213E-02  5.41149589882E-02  5.41149565600E-02
  5.41149540326E-02  5.41149514020E-02  5.41149486641E-02  5.41149458145E-02
  5.41149428486E-02  5.41149397616E-02  5.41149365487E-02  5.41149332046E-02
  5.41149297241E-02  5.41149261015E-02  5.41149223311E-02  5.41149184068E-02
  5.41149143224E-02  5.41149100712E-02  5.41149056466E-02  5.41149010414E-02
  5.41148962483E-02  5.41148912595E-02  5.41148860672E-02  5.41148806629E-02
  5.41148750381E-02  5.41148691837E-02  5.41148630905E-02  5.41148567485E-02
  5.41148501478E-02  5.41148432776E-02  5.41148361271E-02  5.41148286847E-02
  5.41148209387E-02  5.41148128765E-02  5.41148044853E-02  5.41147957516E-02
  5.41147866615E-02  5.41147772005E-02  5.41147673533E-02  5.41147571042E-02
  5.41147464369E-02  5.41147353343E-02  5.41147237785E-02  5.41147117511E-02
  5.41146992329E-02  5.41146862038E-02  5.41146726430E-02  5.41146585288E-02
  5.41146438386E-02  5.41146285488E-02  5.41146126351E-02  5.41145960719E-02
  5.41145788327E-02  5.41145608900E-02  5.41145422151E-02  5.41145227780E-02
  5.41145025477E-02  5.41144814918E-02  5.41144595766E-02  5.41144367670E-02
  5.41144130265E-02  5.41143883172E-02  5.41143625995E-02  5.41143358322E-02
  5.41143079725E-02  5.41142789759E-02  5.41142487959E-02  5.41142173843E-02