<PP_INFO>
Generated using "atomic" code by A. Dal Corso  (Quantum ESPRESSO distributi
Author: D.C.   Generation date: 24May2010                                  
C                                                                          
    1        The Pseudo was generated with a Scalar-Relativistic Calculation
    2 1.3000000E+00    L component and cutoff radius for Local Potential
nl pn  l   occ               Rcut            Rcut US             E pseu
2S  1  0  2.00      1.00000000000      1.40000000000     -1.01067013384
2S  1  0  0.00      1.00000000000      1.40000000000      0.50000000000
2P  2  1  2.00      1.00000000000      1.40000000000     -0.38850122918
2P  2  1  0.00      1.00000000000      1.40000000000      0.50000000000
3D  3  2 -2.00      1.30000000000      1.30000000000      0.15000000000
</PP_INFO>


<PP_HEADER>
   0                   Version Number
   C                   Element
   US                  Ultrasoft pseudopotential
    T                  Nonlinear Core Correction
 SLA  PW   PBX  PBC    PBE    Exchange-Correlation functional
    4.00000000000      Z valence
  -10.75559535715      Total energy
     42.023    686.250 Suggested cutoff for wfc and rho
    2                  Max angular momentum component
  671                  Number of points in mesh
    4    4             Number of Wavefunctions, Number of Projectors
 Wavefunctions         nl  l   occ
                       2S  0  2.00
                       3S  0  0.00
                       2P  1  2.00
                       3P  1  0.00
</PP_HEADER>


<PP_MESH>
  <PP_R>
  1.51980327592E-04  1.55050533867E-04  1.58182762423E-04  1.61378266194E-04
  1.64638323422E-04  1.67964238175E-04  1.71357340862E-04  1.74818988771E-04
  1.78350566607E-04  1.81953487047E-04  1.85629191307E-04  1.89379149720E-04
  1.93204862317E-04  1.97107859436E-04  2.01089702326E-04  2.05151983779E-04
  2.09296328760E-04  2.13524395064E-04  2.17837873973E-04  2.22238490936E-04
  2.26728006258E-04  2.31308215806E-04  2.35980951724E-04  2.40748083170E-04
  2.45611517059E-04  2.50573198830E-04  2.55635113221E-04  2.60799285066E-04
  2.66067780102E-04  2.71442705798E-04  2.76926212196E-04  2.82520492771E-04
  2.88227785310E-04  2.94050372806E-04  2.99990584372E-04  3.06050796171E-04
  3.12233432370E-04  3.18540966105E-04  3.24975920474E-04  3.31540869544E-04
  3.38238439383E-04  3.45071309107E-04  3.52042211955E-04  3.59153936383E-04
  3.66409327174E-04  3.73811286581E-04  3.81362775487E-04  3.89066814588E-04
  3.96926485603E-04  4.04944932504E-04  4.13125362778E-04  4.21471048705E-04
  4.29985328671E-04  4.38671608502E-04  4.47533362826E-04  4.56574136461E-04
  4.65797545839E-04  4.75207280447E-04  4.84807104302E-04  4.94600857463E-04
  5.04592457563E-04  5.14785901373E-04  5.25185266407E-04  5.35794712551E-04
  5.46618483724E-04  5.57660909579E-04  5.68926407233E-04  5.80419483035E-04
  5.92144734370E-04  6.04106851494E-04  6.16310619414E-04  6.28760919799E-04
  6.41462732935E-04  6.54421139718E-04  6.67641323682E-04  6.81128573077E-04
  6.94888282984E-04  7.08925957469E-04  7.23247211790E-04  7.37857774639E-04
  7.52763490435E-04  7.67970321665E-04  7.83484351264E-04  7.99311785049E-04
  8.15458954207E-04  8.31932317818E-04  8.48738465450E-04  8.65884119784E-04
  8.83376139312E-04  9.01221521073E-04  9.19427403460E-04  9.38001069067E-04
  9.56949947609E-04  9.76281618889E-04  9.96003815834E-04  1.01612442759E-03
  1.03665150266E-03  1.05759325215E-03  1.07895805305E-03  1.10075445155E-03
  1.12299116651E-03  1.14567709292E-03  1.16882130543E-03  1.19243306205E-03
  1.21652180780E-03  1.24109717849E-03  1.26616900460E-03  1.29174731519E-03
  1.31784234193E-03  1.34446452318E-03  1.37162450817E-03  1.39933316125E-03
  1.42760156625E-03  1.45644103091E-03  1.48586309141E-03  1.51587951695E-03
  1.54650231451E-03  1.57774373362E-03  1.60961627126E-03  1.64213267686E-03
  1.67530595744E-03  1.70914938273E-03  1.74367649057E-03  1.77890109225E-03
  1.81483727809E-03  1.85149942304E-03  1.88890219244E-03  1.92706054791E-03
  1.96598975329E-03  2.00570538079E-03  2.04622331718E-03  2.08755977018E-03
  2.12973127492E-03  2.17275470057E-03  2.21664725707E-03  2.26142650203E-03
  2.30711034775E-03  2.35371706836E-03  2.40126530719E-03  2.44977408415E-03
  2.49926280341E-03  2.54975126112E-03  2.60125965333E-03  2.65380858409E-03
  2.70741907366E-03  2.76211256696E-03  2.81791094212E-03  2.87483651922E-03
  2.93291206927E-03  2.99216082325E-03  3.05260648146E-03  3.11427322296E-03
  3.17718571527E-03  3.24136912423E-03  3.30684912406E-03  3.37365190763E-03
  3.44180419695E-03  3.51133325384E-03  3.58226689085E-03  3.65463348238E-03
  3.72846197603E-03  3.80378190418E-03  3.88062339582E-03  3.95901718855E-03
  4.03899464095E-03  4.12058774506E-03  4.20382913920E-03  4.28875212106E-03
  4.37539066095E-03  4.46377941544E-03  4.55395374122E-03  4.64594970921E-03
  4.73980411903E-03  4.83555451370E-03  4.93323919465E-03  5.03289723705E-03
  5.13456850546E-03  5.23829366973E-03  5.34411422131E-03  5.45207248984E-03
  5.56221166005E-03  5.67457578910E-03  5.78920982412E-03  5.90615962027E-03
  6.02547195901E-03  6.14719456687E-03  6.27137613453E-03  6.39806633626E-03
  6.52731584983E-03  6.65917637678E-03  6.79370066306E-03  6.93094252020E-03
  7.07095684675E-03  7.21379965033E-03  7.35952806995E-03  7.50820039893E-03
  7.65987610817E-03  7.81461587000E-03  7.97248158237E-03  8.13353639367E-03
  8.29784472798E-03  8.46547231082E-03  8.63648619545E-03  8.81095478973E-03
  8.98894788339E-03  9.17053667607E-03  9.35579380569E-03  9.54479337758E-03
  9.73761099408E-03  9.93432378482E-03  1.01350104375E-02  1.03397512296E-02
  1.05486280599E-02  1.07617244822E-02  1.09791257377E-02  1.12009187900E-02
  1.14271923590E-02  1.16580369574E-02  1.18935449261E-02  1.21338104712E-02
  1.23789297024E-02  1.26290006705E-02  1.28841234072E-02  1.31443999651E-02
  1.34099344583E-02  1.36808331040E-02  1.39572042654E-02  1.42391584946E-02
  1.45268085770E-02  1.48202695766E-02  1.51196588816E-02  1.54250962517E-02
  1.57367038661E-02  1.60546063717E-02  1.63789309341E-02  1.67098072871E-02
  1.70473677859E-02  1.73917474591E-02  1.77430840632E-02  1.81015181375E-02
  1.84671930604E-02  1.88402551067E-02  1.92208535063E-02  1.96091405036E-02
  2.00052714186E-02  2.04094047088E-02  2.08217020331E-02  2.12423283158E-02
  2.16714518131E-02  2.21092441800E-02  2.25558805394E-02  2.30115395518E-02
  2.34764034868E-02  2.39506582963E-02  2.44344936884E-02  2.49281032038E-02
  2.54316842928E-02  2.59454383947E-02  2.64695710178E-02  2.70042918223E-02
  2.75498147036E-02  2.81063578781E-02  2.86741439705E-02  2.92534001028E-02
  2.98443579852E-02  3.04472540088E-02  3.10623293399E-02  3.16898300169E-02
  3.23300070485E-02  3.29831165139E-02  3.36494196658E-02  3.43291830341E-02
  3.50226785335E-02  3.57301835712E-02  3.64519811587E-02  3.71883600247E-02
  3.79396147306E-02  3.87060457883E-02  3.94879597804E-02  4.02856694828E-02
  4.10994939903E-02  4.19297588433E-02  4.27767961589E-02  4.36409447634E-02
  4.45225503276E-02  4.54219655057E-02  4.63395500755E-02  4.72756710833E-02
  4.82307029898E-02  4.92050278207E-02  5.01990353187E-02  5.12131231002E-02
  5.22476968138E-02  5.33031703027E-02  5.43799657705E-02  5.54785139497E-02
  5.65992542742E-02  5.77426350550E-02  5.89091136598E-02  6.00991566955E-02
  6.13132401952E-02  6.25518498086E-02  6.38154809959E-02  6.51046392264E-02
  6.64198401808E-02  6.77616099568E-02  6.91304852803E-02  7.05270137196E-02
  7.19517539048E-02  7.34052757510E-02  7.48881606862E-02  7.64010018842E-02
  7.79444045017E-02  7.95189859202E-02  8.11253759933E-02  8.27642172986E-02
  8.44361653943E-02  8.61418890819E-02  8.78820706738E-02  8.96574062658E-02
  9.14686060157E-02  9.33163944276E-02  9.52015106415E-02  9.71247087290E-02
  9.90867579950E-02  1.01088443285E-01  1.03130565301E-01  1.05213940918E-01
  1.07339403514E-01  1.09507803303E-01  1.11720007673E-01  1.13976901535E-01
  1.16279387679E-01  1.18628387127E-01  1.21024839512E-01  1.23469703447E-01
  1.25963956909E-01  1.28508597634E-01  1.31104643511E-01  1.33753132994E-01
  1.36455125513E-01  1.39211701902E-01  1.42023964828E-01  1.44893039233E-01
  1.47820072786E-01  1.50806236339E-01  1.53852724398E-01  1.56960755597E-01
  1.60131573192E-01  1.63366445551E-01  1.66666666667E-01  1.70033556671E-01
  1.73468462365E-01  1.76972757758E-01  1.80547844612E-01  1.84195153013E-01
  1.87916141930E-01  1.91712299810E-01  1.95585145165E-01  1.99536227187E-01
  2.03567126360E-01  2.07679455098E-01  2.11874858387E-01  2.16155014444E-01
  2.20521635390E-01  2.24976467929E-01  2.29521294056E-01  2.34157931761E-01
  2.38888235760E-01  2.43714098239E-01  2.48637449607E-01  2.53660259270E-01
  2.58784536419E-01  2.64012330832E-01  2.69345733699E-01  2.74786878450E-01
  2.80337941616E-01  2.86001143697E-01  2.91778750049E-01  2.97673071792E-01
  3.03686466732E-01  3.09821340308E-01  3.16080146551E-01  3.22465389067E-01
  3.28979622038E-01  3.35625451245E-01  3.42405535107E-01  3.49322585749E-01
  3.56379370083E-01  3.63578710916E-01  3.70923488082E-01  3.78416639589E-01
  3.86061162797E-01  3.93860115618E-01  4.01816617736E-01  4.09933851859E-01
  4.18215064989E-01  4.26663569722E-01  4.35282745571E-01  4.44076040322E-01
  4.53046971410E-01  4.62199127327E-01  4.71536169059E-01  4.81061831545E-01
  4.90779925178E-01  5.00694337324E-01  5.10809033882E-01  5.21128060864E-01
  5.31655546019E-01  5.42395700482E-01  5.53352820456E-01  5.64531288937E-01
  5.75935577460E-01  5.87570247894E-01  5.99439954262E-01  6.11549444603E-01
  6.23903562877E-01  6.36507250894E-01  6.49365550299E-01  6.62483604582E-01
  6.75866661141E-01  6.89520073375E-01  7.03449302833E-01  7.17659921391E-01
  7.32157613486E-01  7.46948178390E-01  7.62037532524E-01  7.77431711831E-01
  7.93136874190E-01  8.09159301873E-01  8.25505404066E-01  8.42181719427E-01
  8.59194918706E-01  8.76551807408E-01  8.94259328520E-01  9.12324565288E-01
  9.30754744046E-01  9.49557237112E-01  9.68739565734E-01  9.88309403099E-01
  1.00827457740E+00  1.02864307498E+00  1.04942304350E+00  1.07062279524E+00
  1.09225081037E+00  1.11431574038E+00  1.13682641155E+00  1.15979182844E+00
  1.18322117753E+00  1.20712383086E+00  1.23150934982E+00  1.25638748894E+00
  1.28176819981E+00  1.30766163505E+00  1.33407815238E+00  1.36102831876E+00
  1.38852291461E+00  1.41657293815E+00  1.44518960974E+00  1.47438437645E+00
  1.50416891657E+00  1.53455514431E+00  1.56555521457E+00  1.59718152779E+00
  1.62944673492E+00  1.66236374247E+00  1.69594571768E+00  1.73020609379E+00
  1.76515857541E+00  1.80081714399E+00  1.83719606344E+00  1.87430988581E+00
  1.91217345713E+00  1.95080192333E+00  1.99021073631E+00  2.03041566012E+00
  2.07143277726E+00  2.11327849514E+00  2.15596955259E+00  2.19952302661E+00
  2.24395633917E+00  2.28928726418E+00  2.33553393462E+00  2.38271484978E+00
  2.43084888265E+00  2.47995528748E+00  2.53005370749E+00  2.58116418272E+00
  2.63330715804E+00  2.68650349134E+00  2.74077446185E+00  2.79614177869E+00
  2.85262758952E+00  2.91025448943E+00  2.96904552994E+00  3.02902422824E+00
  3.09021457662E+00  3.15264105204E+00  3.21632862592E+00  3.28130277413E+00
  3.34758948720E+00  3.41521528070E+00  3.48420720585E+00  3.55459286034E+00
  3.62640039937E+00  3.69965854691E+00  3.77439660720E+00  3.85064447645E+00
  3.92843265484E+00  4.00779225868E+00  4.08875503285E+00  4.17135336356E+00
  4.25562029123E+00  4.34158952375E+00  4.42929544998E+00  4.51877315344E+00
  4.61005842642E+00  4.70318778423E+00  4.79819847987E+00  4.89512851888E+00
  4.99401667457E+00  5.09490250351E+00  5.19782636138E+00  5.30282941911E+00
  5.40995367931E+00  5.51924199312E+00  5.63073807731E+00  5.74448653181E+00
  5.86053285752E+00  5.97892347451E+00  6.09970574061E+00  6.22292797034E+00
  6.34863945423E+00  6.47689047856E+00  6.60773234543E+00  6.74121739334E+00
  6.87739901810E+00  7.01633169417E+00  7.15807099646E+00  7.30267362260E+00
  7.45019741555E+00  7.60070138681E+00  7.75424573996E+00  7.91089189481E+00
  8.07070251189E+00  8.23374151759E+00  8.40007412968E+00  8.56976688342E+00
  8.74288765818E+00  8.91950570458E+00  9.09969167219E+00  9.28351763780E+00
  9.47105713424E+00  9.66238517983E+00  9.85757830831E+00  1.00567145996E+01
  1.02598737107E+01  1.04671369082E+01  1.06785871000E+01  1.08943088690E+01
  1.11143885068E+01  1.13389140482E+01  1.15679753065E+01  1.18016639090E+01
  1.20400733346E+01  1.22832989499E+01  1.25314380487E+01  1.27845898897E+01
  1.30428557372E+01  1.33063389008E+01  1.35751447775E+01  1.38493808931E+01
  1.41291569456E+01  1.44145848494E+01  1.47057787793E+01  1.50028552168E+01
  1.53059329964E+01  1.56151333532E+01  1.59305799717E+01  1.62523990345E+01
  1.65807192737E+01  1.69156720216E+01  1.72573912639E+01  1.76060136928E+01
  1.79616787619E+01  1.83245287420E+01  1.86947087780E+01  1.90723669467E+01
  1.94576543165E+01  1.98507250075E+01  2.02517362531E+01  2.06608484633E+01
  2.10782252884E+01  2.15040336846E+01  2.19384439810E+01  2.23816299475E+01
  2.28337688644E+01  2.32950415933E+01  2.37656326495E+01  2.42457302756E+01
  2.47355265171E+01  2.52352172990E+01  2.57450025043E+01  2.62650860539E+01
  2.67956759881E+01  2.73369845500E+01  2.78892282702E+01  2.84526280536E+01
  2.90274092675E+01  2.96138018322E+01  3.02120403125E+01  3.08223640118E+01
  3.14450170676E+01  3.20802485495E+01  3.27283125586E+01  3.33894683291E+01
  3.40639803322E+01  3.47521183815E+01  3.54541577416E+01  3.61703792375E+01
  3.69010693674E+01  3.76465204170E+01  3.84070305768E+01  3.91829040609E+01
  3.99744512290E+01  4.07819887107E+01  4.16058395316E+01  4.24463332431E+01
  4.33038060538E+01  4.41786009644E+01  4.50710679044E+01  4.59815638725E+01
  4.69104530792E+01  4.78581070927E+01  4.88249049871E+01  4.98112334945E+01
  5.08174871595E+01  5.18440684969E+01  5.28913881530E+01  5.39598650695E+01
  5.50499266516E+01  5.61620089383E+01  5.72965567775E+01  5.84540240033E+01
  5.96348736181E+01  6.08395779776E+01  6.20686189794E+01  6.33224882564E+01
  6.46016873730E+01  6.59067280259E+01  6.72381322488E+01  6.85964326211E+01
  6.99821724811E+01  7.13959061432E+01  7.28381991197E+01  7.43096283471E+01
  7.58107824166E+01  7.73422618099E+01  7.89046791391E+01  8.04986593921E+01
  8.21248401822E+01  8.37838720034E+01  8.54764184905E+01  8.72031566847E+01
  8.89647773043E+01  9.07619850210E+01  9.25954987419E+01  9.44660518969E+01
  9.63743927323E+01  9.83212846097E+01  1.00307506312E+02
  </PP_R>
  <PP_RAB>
  3.03960655185E-06  3.10101067735E-06  3.16365524847E-06  3.22756532387E-06
  3.29276646844E-06  3.35928476350E-06  3.42714681725E-06  3.49637977543E-06
  3.56701133213E-06  3.63906974093E-06  3.71258382615E-06  3.78758299440E-06
  3.86409724635E-06  3.94215718872E-06  4.02179404653E-06  4.10303967558E-06
  4.18592657521E-06  4.27048790128E-06  4.35675747945E-06  4.44476981871E-06
  4.53456012516E-06  4.62616431612E-06  4.71961903449E-06  4.81496166340E-06
  4.91223034118E-06  5.01146397659E-06  5.11270226441E-06  5.21598570131E-06
  5.32135560204E-06  5.42885411596E-06  5.53852424391E-06  5.65040985541E-06
  5.76455570619E-06  5.88100745611E-06  5.99981168744E-06  6.12101592343E-06
  6.24466864741E-06  6.37081932211E-06  6.49951840948E-06  6.63081739088E-06
  6.76476878765E-06  6.90142618213E-06  7.04084423911E-06  7.18307872766E-06
  7.32818654348E-06  7.47622573162E-06  7.62725550974E-06  7.78133629176E-06
  7.93852971206E-06  8.09889865008E-06  8.26250725555E-06  8.42942097410E-06
  8.59970657342E-06  8.77343217004E-06  8.95066725651E-06  9.13148272923E-06
  9.31595091679E-06  9.50414560893E-06  9.69614208604E-06  9.89201714927E-06
  1.00918491513E-05  1.02957180275E-05  1.05037053281E-05  1.07158942510E-05
  1.09323696745E-05  1.11532181916E-05  1.13785281447E-05  1.16083896607E-05
  1.18428946874E-05  1.20821370299E-05  1.23262123883E-05  1.25752183960E-05
  1.28292546587E-05  1.30884227944E-05  1.33528264736E-05  1.36225714615E-05
  1.38977656597E-05  1.41785191494E-05  1.44649442358E-05  1.47571554928E-05
  1.50552698087E-05  1.53594064333E-05  1.56696870253E-05  1.59862357010E-05
  1.63091790841E-05  1.66386463564E-05  1.69747693090E-05  1.73176823957E-05
  1.76675227862E-05  1.80244304215E-05  1.83885480692E-05  1.87600213813E-05
  1.91389989522E-05  1.95256323778E-05  1.99200763167E-05  2.03224885517E-05
  2.07330300531E-05  2.11518650430E-05  2.15791610610E-05  2.20150890310E-05
  2.24598233303E-05  2.29135418583E-05  2.33764261086E-05  2.38486612410E-05
  2.43304361560E-05  2.48219435697E-05  2.53233800919E-05  2.58349463038E-05
  2.63568468386E-05  2.68892904637E-05  2.74324901634E-05  2.79866632250E-05
  2.85520313250E-05  2.91288206182E-05  2.97172618281E-05  3.03175903390E-05
  3.09300462902E-05  3.15548746724E-05  3.21923254251E-05  3.28426535373E-05
  3.35061191488E-05  3.41829876547E-05  3.48735298114E-05  3.55780218451E-05
  3.62967455618E-05  3.70299884608E-05  3.77780438489E-05  3.85412109582E-05
  3.93197950658E-05  4.01141076157E-05  4.09244663436E-05  4.17511954036E-05
  4.25946254985E-05  4.34550940115E-05  4.43329451415E-05  4.52285300407E-05
  4.61422069549E-05  4.70743413672E-05  4.80253061437E-05  4.89954816830E-05
  4.99852560683E-05  5.09950252224E-05  5.20251930666E-05  5.30761716817E-05
  5.41483814732E-05  5.52422513392E-05  5.63582188424E-05  5.74967303845E-05
  5.86582413854E-05  5.98432164650E-05  6.10521296291E-05  6.22854644591E-05
  6.35437143054E-05  6.48273824846E-05  6.61369824812E-05  6.74730381527E-05
  6.88360839390E-05  7.02266650768E-05  7.16453378170E-05  7.30926696475E-05
  7.45692395206E-05  7.60756380836E-05  7.76124679163E-05  7.91803437710E-05
  8.07798928190E-05  8.24117549011E-05  8.40765827841E-05  8.57750424212E-05
  8.75078132190E-05  8.92755883088E-05  9.10790748243E-05  9.29189941842E-05
  9.47960823806E-05  9.67110902740E-05  9.86647838930E-05  1.00657944741E-04
  1.02691370109E-04  1.04765873395E-04  1.06882284426E-04  1.09041449797E-04
  1.11244233201E-04  1.13491515782E-04  1.15784196482E-04  1.18123192405E-04
  1.20509439180E-04  1.22943891337E-04  1.25427522691E-04  1.27961326725E-04
  1.30546316997E-04  1.33183527536E-04  1.35874013261E-04  1.38618850404E-04
  1.41419136935E-04  1.44275993007E-04  1.47190561399E-04  1.50164007979E-04
  1.53197522163E-04  1.56292317400E-04  1.59449631647E-04  1.62670727873E-04
  1.65956894560E-04  1.69309446216E-04  1.72729723909E-04  1.76219095795E-04
  1.79778957668E-04  1.83410733521E-04  1.87115876114E-04  1.90895867552E-04
  1.94752219882E-04  1.98686475696E-04  2.02700208751E-04  2.06795024591E-04
  2.10972561199E-04  2.15234489644E-04  2.19582514755E-04  2.24018375799E-04
  2.28543847181E-04  2.33160739149E-04  2.37870898521E-04  2.42676209425E-04
  2.47578594048E-04  2.52580013409E-04  2.57682468144E-04  2.62887999302E-04
  2.68198689165E-04  2.73616662080E-04  2.79144085307E-04  2.84783169891E-04
  2.90536171540E-04  2.96405391531E-04  3.02393177631E-04  3.08501925034E-04
  3.14734077321E-04  3.21092127435E-04  3.27578618681E-04  3.34196145743E-04
  3.40947355718E-04  3.47834949183E-04  3.54861681264E-04  3.62030362750E-04
  3.69343861208E-04  3.76805102135E-04  3.84417070127E-04  3.92182810073E-04
  4.00105428372E-04  4.08188094177E-04  4.16434040662E-04  4.24846566316E-04
  4.33429036261E-04  4.42184883600E-04  4.51117610789E-04  4.60230791036E-04
  4.69528069737E-04  4.79013165926E-04  4.88689873768E-04  4.98562064075E-04
  5.08633685856E-04  5.18908767893E-04  5.29391420356E-04  5.40085836446E-04
  5.50996294072E-04  5.62127157562E-04  5.73482879410E-04  5.85068002057E-04
  5.96887159705E-04  6.08945080176E-04  6.21246586798E-04  6.33796600338E-04
  6.46600140970E-04  6.59662330279E-04  6.72988393316E-04  6.86583660683E-04
  7.00453570669E-04  7.14603671423E-04  7.29039623174E-04  7.43767200495E-04
  7.58792294613E-04  7.74120915766E-04  7.89759195607E-04  8.05713389657E-04
  8.21989879805E-04  8.38595176866E-04  8.55535923179E-04  8.72818895268E-04
  8.90451006553E-04  9.08439310113E-04  9.26791001511E-04  9.45513421666E-04
  9.64614059797E-04  9.84100556413E-04  1.00398070637E-03  1.02426246200E-03
  1.04495393628E-03  1.06606340605E-03  1.08759931541E-03  1.10957027899E-03
  1.13198508548E-03  1.15485270110E-03  1.17818227320E-03  1.20198313391E-03
  1.22626480390E-03  1.25103699617E-03  1.27630961992E-03  1.30209278453E-03
  1.32839680362E-03  1.35523219914E-03  1.38260970561E-03  1.41054027439E-03
  1.43903507810E-03  1.46810551502E-03  1.49776321372E-03  1.52802003768E-03
  1.55888809003E-03  1.59037971840E-03  1.62250751987E-03  1.65528434597E-03
  1.68872330789E-03  1.72283778164E-03  1.75764141348E-03  1.79314812532E-03
  1.82937212031E-03  1.86632788855E-03  1.90403021283E-03  1.94249417458E-03
  1.98173515990E-03  2.02176886571E-03  2.06261130602E-03  2.10427881836E-03
  2.14678807028E-03  2.19015606605E-03  2.23440015345E-03  2.27953803071E-03
  2.32558775357E-03  2.37256774254E-03  2.42049679025E-03  2.46939406894E-03
  2.51927913819E-03  2.57017195268E-03  2.62209287022E-03  2.67506265987E-03
  2.72910251026E-03  2.78423403804E-03  2.84047929655E-03  2.89786078466E-03
  2.95640145572E-03  3.01612472679E-03  3.07705448796E-03  3.13921511195E-03
  3.20263146384E-03  3.26732891102E-03  3.33333333333E-03  3.40067113342E-03
  3.46936924731E-03  3.53945515515E-03  3.61095689225E-03  3.68390306025E-03
  3.75832283860E-03  3.83424599619E-03  3.91170290331E-03  3.99072454374E-03
  4.07134252720E-03  4.15358910196E-03  4.23749716774E-03  4.32310028889E-03
  4.41043270779E-03  4.49952935859E-03  4.59042588112E-03  4.68315863521E-03
  4.77776471520E-03  4.87428196478E-03  4.97274899214E-03  5.07320518540E-03
  5.17569072837E-03  5.28024661665E-03  5.38691467398E-03  5.49573756900E-03
  5.60675883233E-03  5.72002287395E-03  5.83557500099E-03  5.95346143583E-03
  6.07372933464E-03  6.19642680615E-03  6.32160293102E-03  6.44930778134E-03
  6.57959244077E-03  6.71250902490E-03  6.84811070215E-03  6.98645171498E-03
  7.12758740166E-03  7.27157421833E-03  7.41846976164E-03  7.56833279177E-03
  7.72122325594E-03  7.87720231235E-03  8.03633235472E-03  8.19867703719E-03
  8.36430129979E-03  8.53327139443E-03  8.70565491141E-03  8.88152080643E-03
  9.06093942820E-03  9.24398254655E-03  9.43072338117E-03  9.62123663089E-03
  9.81559850355E-03  1.00138867465E-02  1.02161806776E-02  1.04225612173E-02
  1.06331109204E-02  1.08479140096E-02  1.10670564091E-02  1.12906257787E-02
  1.15187115492E-02  1.17514049579E-02  1.19887990852E-02  1.22309888921E-02
  1.24780712575E-02  1.27301450179E-02  1.29873110060E-02  1.32496720916E-02
  1.35173332228E-02  1.37904014675E-02  1.40689860567E-02  1.43531984278E-02
  1.46431522697E-02  1.49389635678E-02  1.52407506505E-02  1.55486342366E-02
  1.58627374838E-02  1.61831860375E-02  1.65101080813E-02  1.68436343885E-02
  1.71838983741E-02  1.75310361482E-02  1.78851865704E-02  1.82464913058E-02
  1.86150948809E-02  1.89911447422E-02  1.93747913147E-02  1.97661880620E-02
  2.01654915480E-02  2.05728614996E-02  2.09884608701E-02  2.14124559048E-02
  2.18450162073E-02  2.22863148076E-02  2.27365282310E-02  2.31958365688E-02
  2.36644235505E-02  2.41424766172E-02  2.46301869964E-02  2.51277497789E-02
  2.56353639963E-02  2.61532327011E-02  2.66815630477E-02  2.72205663752E-02
  2.77704582923E-02  2.83314587630E-02  2.89037921949E-02  2.94876875291E-02
  3.00833783314E-02  3.06911028863E-02  3.13111042915E-02  3.19436305559E-02
  3.25889346984E-02  3.32472748494E-02  3.39189143536E-02  3.46041218758E-02
  3.53031715081E-02  3.60163428798E-02  3.67439212688E-02  3.74861977163E-02
  3.82434691426E-02  3.90160384666E-02  3.98042147262E-02  4.06083132023E-02
  4.14286555453E-02  4.22655699028E-02  4.31193910518E-02  4.39904605322E-02
  4.48791267833E-02  4.57857452836E-02  4.67106786924E-02  4.76542969956E-02
  4.86169776529E-02  4.95991057496E-02  5.06010741498E-02  5.16232836545E-02
  5.26661431609E-02  5.37300698268E-02  5.48154892370E-02  5.59228355738E-02
  5.70525517905E-02  5.82050897886E-02  5.93809105987E-02  6.05804845648E-02
  6.18042915325E-02  6.30528210409E-02  6.43265725183E-02  6.56260554825E-02
  6.69517897440E-02  6.83043056140E-02  6.96841441170E-02  7.10918572068E-02
  7.25280079873E-02  7.39931709381E-02  7.54879321439E-02  7.70128895291E-02
  7.85686530969E-02  8.01558451735E-02  8.17751006570E-02  8.34270672711E-02
  8.51124058245E-02  8.68317904751E-02  8.85859089996E-02  9.03754630689E-02
  9.22011685284E-02  9.40637556847E-02  9.59639695975E-02  9.79025703776E-02
  9.98803334913E-02  1.01898050070E-01  1.03956527228E-01  1.06056588382E-01
  1.08199073586E-01  1.10384839862E-01  1.12614761546E-01  1.14889730636E-01
  1.17210657150E-01  1.19578469490E-01  1.21994114812E-01  1.24458559407E-01
  1.26972789085E-01  1.29537809571E-01  1.32154646909E-01  1.34824347867E-01
  1.37547980362E-01  1.40326633883E-01  1.43161419929E-01  1.46053472452E-01
  1.49003948311E-01  1.52014027736E-01  1.55084914799E-01  1.58217837896E-01
  1.61414050238E-01  1.64674830352E-01  1.68001482594E-01  1.71395337668E-01
  1.74857753164E-01  1.78390114092E-01  1.81993833444E-01  1.85670352756E-01
  1.89421142685E-01  1.93247703597E-01  1.97151566166E-01  2.01134291991E-01
  2.05197474215E-01  2.09342738164E-01  2.13571742000E-01  2.17886177380E-01
  2.22287770136E-01  2.26778280965E-01  2.31359506129E-01  2.36033278181E-01
  2.40801466691E-01  2.45665978999E-01  2.50628760973E-01  2.55691797794E-01
  2.60857114744E-01  2.66126778017E-01  2.71502895550E-01  2.76987617861E-01
  2.82583138913E-01  2.88291696988E-01  2.94115575586E-01  3.00057104335E-01
  3.06118659927E-01  3.12302667065E-01  3.18611599434E-01  3.25047980690E-01
  3.31614385473E-01  3.38313440432E-01  3.45147825278E-01  3.52120273856E-01
  3.59233575238E-01  3.66490574840E-01  3.73894175559E-01  3.81447338934E-01
  3.89153086330E-01  3.97014500149E-01  4.05034725062E-01  4.13216969266E-01
  4.21564505767E-01  4.30080673691E-01  4.38768879619E-01  4.47632598950E-01
  4.56675377288E-01  4.65900831867E-01  4.75312652990E-01  4.84914605512E-01
  4.94710530342E-01  5.04704345980E-01  5.14900050086E-01  5.25301721078E-01
  5.35913519762E-01  5.46739691000E-01  5.57784565404E-01  5.69052561071E-01
  5.80548185350E-01  5.92276036645E-01  6.04240806251E-01  6.16447280236E-01
  6.28900341352E-01  6.41604970991E-01  6.54566251173E-01  6.67789366583E-01
  6.81279606643E-01  6.95042367630E-01  7.09083154832E-01  7.23407584750E-01
  7.38021387347E-01  7.52930408340E-01  7.68140611535E-01  7.83658081217E-01
  7.99489024581E-01  8.15639774214E-01  8.32116790632E-01  8.48926664862E-01
  8.66076121077E-01  8.83572019287E-01  9.01421358087E-01  9.19631277449E-01
  9.38209061584E-01  9.57162141854E-01  9.76498099742E-01  9.96224669890E-01
  1.01634974319E+00  1.03688136994E+00  1.05782776306E+00  1.07919730139E+00
  1.10099853303E+00  1.12324017877E+00  1.14593113555E+00  1.16908048007E+00
  1.19269747236E+00  1.21679155955E+00  1.24137237959E+00  1.26644976513E+00
  1.29203374746E+00  1.31813456052E+00  1.34476264498E+00  1.37192865242E+00
  1.39964344962E+00  1.42791812286E+00  1.45676398239E+00  1.48619256694E+00
  1.51621564833E+00  1.54684523620E+00  1.57809358278E+00  1.60997318784E+00
  1.64249680364E+00  1.67567744007E+00  1.70952836981E+00  1.74406313369E+00
  1.77929554609E+00  1.81523970042E+00  1.85190997484E+00  1.88932103794E+00
  1.92748785465E+00  1.96642569219E+00  2.00615012624E+00
  </PP_RAB>
</PP_MESH>


<PP_NLCC>
  1.82697726841E-02  1.82697726616E-02  1.82697726383E-02  1.82697726140E-02
  1.82697725888E-02  1.82697725625E-02  1.82697725351E-02  1.82697725066E-02
  1.82697724770E-02  1.82697724461E-02  1.82697724140E-02  1.82697723806E-02
  1.82697723458E-02  1.82697723095E-02  1.82697722719E-02  1.82697722326E-02
  1.82697721918E-02  1.82697721493E-02  1.82697721051E-02  1.82697720590E-02
  1.82697720111E-02  1.82697719612E-02  1.82697719093E-02  1.82697718553E-02
  1.82697717990E-02  1.82697717405E-02  1.82697716796E-02  1.82697716162E-02
  1.82697715502E-02  1.82697714815E-02  1.82697714100E-02  1.82697713356E-02
  1.82697712582E-02  1.82697711776E-02  1.82697710937E-02  1.82697710064E-02
  1.82697709155E-02  1.82697708209E-02  1.82697707225E-02  1.82697706200E-02
  1.82697705134E-02  1.82697704024E-02  1.82697702869E-02  1.82697701666E-02
  1.82697700415E-02  1.82697699112E-02  1.82697697756E-02  1.82697696345E-02
  1.82697694877E-02  1.82697693348E-02  1.82697691757E-02  1.82697690101E-02
  1.82697688378E-02  1.82697686584E-02  1.82697684717E-02  1.82697682774E-02
  1.82697680751E-02  1.82697678646E-02  1.82697676455E-02  1.82697674175E-02
  1.82697671802E-02  1.82697669331E-02  1.82697666760E-02  1.82697664084E-02
  1.82697661299E-02  1.82697658400E-02  1.82697655383E-02  1.82697652242E-02
  1.82697648974E-02  1.82697645572E-02  1.82697642031E-02  1.82697638346E-02
  1.82697634510E-02  1.82697630518E-02  1.82697626363E-02  1.82697622038E-02
  1.82697617537E-02  1.82697612852E-02  1.82697607976E-02  1.82697602901E-02
  1.82697597619E-02  1.82697592122E-02  1.82697586399E-02  1.82697580444E-02
  1.82697574245E-02  1.82697567794E-02  1.82697561079E-02  1.82697554090E-02
  1.82697546815E-02  1.82697539244E-02  1.82697531364E-02  1.82697523163E-02
  1.82697514626E-02  1.82697505742E-02  1.82697496494E-02  1.82697486870E-02
  1.82697476852E-02  1.82697466426E-02  1.82697455574E-02  1.82697444279E-02
  1.82697432524E-02  1.82697420288E-02  1.82697407554E-02  1.82697394299E-02
  1.82697380504E-02  1.82697366145E-02  1.82697351201E-02  1.82697335647E-02
  1.82697319458E-02  1.82697302608E-02  1.82697285071E-02  1.82697266818E-02
  1.82697247820E-02  1.82697228046E-02  1.82697207466E-02  1.82697186046E-02
  1.82697163752E-02  1.82697140547E-02  1.82697116396E-02  1.82697091260E-02
  1.82697065097E-02  1.82697037867E-02  1.82697009525E-02  1.82696980027E-02
  1.82696949325E-02  1.82696917369E-02  1.82696884110E-02  1.82696849494E-02