<PP_INFO>
Generated using "atomic" code by A. Dal Corso  (espresso distribution)     
Author: anonymous   Generation date: 27May2009                             
Cl                                                                         
    1        The Pseudo was generated with a Scalar-Relativistic Calculation
    2 1.4000000E+00    L component and cutoff radius for Local Potential
nl pn  l   occ               Rcut            Rcut US             E pseu
3S  1  0  1.75      1.34000000000      1.34000000000     -2.04858424518
3P  2  1  4.50      1.34000000000      1.34000000000     -1.12812396311
3D  3  2  0.25      1.40000000000      1.40000000000     -0.10291237961
</PP_INFO>


<PP_HEADER>
   0                   Version Number
  Cl                   Element
   NC                  Norm - Conserving pseudopotential
    F                  Nonlinear Core Correction
 SLA  PW   PBX  PBC    PBE  Exchange-Correlation functional
    7.00000000000      Z valence
  -28.95642181302      Total energy
      0.000      0.000 Suggested cutoff for wfc and rho
    2                  Max angular momentum component
 1157                  Number of points in mesh
    3    2             Number of Wavefunctions, Number of Projectors
 Wavefunctions         nl  l   occ
                       3S  0  1.75
                       3P  1  4.50
                       3D  2  0.25
</PP_HEADER>


<PP_MESH>
  <PP_R>
  5.36401156209E-05  5.43148252158E-05  5.49980216127E-05  5.56898115624E-05
  5.63903031585E-05  5.70996058541E-05  5.78178304793E-05  5.85450892582E-05
  5.92814958264E-05  6.00271652489E-05  6.07822140381E-05  6.15467601719E-05
  6.23209231122E-05  6.31048238235E-05  6.38985847920E-05  6.47023300443E-05
  6.55161851673E-05  6.63402773276E-05  6.71747352912E-05  6.80196894438E-05
  6.88752718112E-05  6.97416160801E-05  7.06188576183E-05  7.15071334967E-05
  7.24065825102E-05  7.33173451995E-05  7.42395638732E-05  7.51733826298E-05
  7.61189473803E-05  7.70764058713E-05  7.80459077075E-05  7.90276043755E-05
  8.00216492675E-05  8.10281977050E-05  8.20474069633E-05  8.30794362958E-05
  8.41244469593E-05  8.51826022387E-05  8.62540674731E-05  8.73390100810E-05
  8.84375995869E-05  8.95500076477E-05  9.06764080794E-05  9.18169768843E-05
  9.29718922786E-05  9.41413347203E-05  9.53254869370E-05  9.65245339550E-05
  9.77386631279E-05  9.89680641657E-05  1.00212929165E-04  1.01473452638E-04
  1.02749831545E-04  1.04042265322E-04  1.05350955914E-04  1.06676107808E-04
  1.08017928061E-04  1.09376626334E-04  1.10752414928E-04  1.12145508812E-04
  1.13556125660E-04  1.14984485884E-04  1.16430812668E-04  1.17895332003E-04
  1.19378272723E-04  1.20879866542E-04  1.22400348085E-04  1.23939954932E-04
  1.25498927649E-04  1.27077509829E-04  1.28675948128E-04  1.30294492306E-04
  1.31933395264E-04  1.33592913083E-04  1.35273305066E-04  1.36974833779E-04
  1.38697765088E-04  1.40442368205E-04  1.42208915727E-04  1.43997683682E-04
  1.45808951569E-04  1.47643002400E-04  1.49500122751E-04  1.51380602800E-04
  1.53284736377E-04  1.55212821005E-04  1.57165157953E-04  1.59142052276E-04
  1.61143812869E-04  1.63170752510E-04  1.65223187913E-04  1.67301439776E-04
  1.69405832829E-04  1.71536695888E-04  1.73694361904E-04  1.75879168018E-04
  1.78091455610E-04  1.80331570355E-04  1.82599862273E-04  1.84896685792E-04
  1.87222399795E-04  1.89577367678E-04  1.91961957410E-04  1.94376541589E-04
  1.96821497498E-04  1.99297207167E-04  2.01804057429E-04  2.04342439986E-04
  2.06912751465E-04  2.09515393483E-04  2.12150772707E-04  2.14819300921E-04
  2.17521395087E-04  2.20257477414E-04  2.23027975421E-04  2.25833322002E-04
  2.28673955499E-04  2.31550319766E-04  2.34462864243E-04  2.37412044019E-04
  2.40398319910E-04  2.43422158527E-04  2.46484032352E-04  2.49584419809E-04
  2.52723805338E-04  2.55902679477E-04  2.59121538930E-04  2.62380886650E-04
  2.65681231918E-04  2.69023090419E-04  2.72406984325E-04  2.75833442377E-04
  2.79302999965E-04  2.82816199216E-04  2.86373589072E-04  2.89975725385E-04
  2.93623170995E-04  2.97316495822E-04  3.01056276957E-04  3.04843098748E-04
  3.08677552893E-04  3.12560238534E-04  3.16491762348E-04  3.20472738643E-04
  3.24503789457E-04  3.28585544647E-04  3.32718641997E-04  3.36903727312E-04
  3.41141454520E-04  3.45432485774E-04  3.49777491557E-04  3.54177150785E-04
  3.58632150913E-04  3.63143188044E-04  3.67710967037E-04  3.72336201617E-04
  3.77019614486E-04  3.81761937436E-04  3.86563911466E-04  3.91426286894E-04
  3.96349823476E-04  4.01335290523E-04  4.06383467027E-04  4.11495141774E-04
  4.16671113474E-04  4.21912190883E-04  4.27219192930E-04  4.32592948846E-04
  4.38034298290E-04  4.43544091484E-04  4.49123189345E-04  4.54772463618E-04
  4.60492797013E-04  4.66285083345E-04  4.72150227670E-04  4.78089146429E-04
  4.84102767589E-04  4.90192030792E-04  4.96357887497E-04  5.02601301132E-04
  5.08923247242E-04  5.15324713646E-04  5.21806700584E-04  5.28370220881E-04
  5.35016300100E-04  5.41745976704E-04  5.48560302219E-04  5.55460341398E-04
  5.62447172385E-04  5.69521886887E-04  5.76685590342E-04  5.83939402095E-04
  5.91284455567E-04  5.98721898438E-04  6.06252892824E-04  6.13878615457E-04
  6.21600257874E-04  6.29419026595E-04  6.37336143320E-04  6.45352845114E-04
  6.53470384602E-04  6.61690030168E-04  6.70013066148E-04  6.78440793032E-04
  6.86974527670E-04  6.95615603476E-04  7.04365370636E-04  7.13225196317E-04
  7.22196464886E-04  7.31280578123E-04  7.40478955437E-04  7.49793034095E-04
  7.59224269440E-04  7.68774135122E-04  7.78444123326E-04  7.88235745008E-04
  7.98150530129E-04  8.08190027895E-04  8.18355806996E-04  8.28649455858E-04
  8.39072582882E-04  8.49626816705E-04  8.60313806447E-04  8.71135221971E-04
  8.82092754146E-04  8.93188115108E-04  9.04423038531E-04  9.15799279893E-04
  9.27318616756E-04  9.38982849040E-04  9.50793799304E-04  9.62753313034E-04
  9.74863258927E-04  9.87125529188E-04  9.99542039822E-04  1.01211473093E-03
  1.02484556703E-03  1.03773653733E-03  1.05078965608E-03  1.06400696285E-03
  1.07739052287E-03  1.09094242735E-03  1.10466479380E-03  1.11855976638E-03
  1.13262951620E-03  1.14687624168E-03  1.16130216891E-03  1.17590955197E-03
  1.19070067328E-03  1.20567784400E-03  1.22084340434E-03  1.23619972394E-03
  1.25174920226E-03  1.26749426894E-03  1.28343738418E-03  1.29958103912E-03
  1.31592775625E-03  1.33248008976E-03  1.34924062600E-03  1.36621198383E-03
  1.38339681506E-03  1.40079780486E-03  1.41841767217E-03  1.43625917012E-03
  1.45432508649E-03  1.47261824412E-03  1.49114150134E-03  1.50989775245E-03
  1.52888992816E-03  1.54812099603E-03  1.56759396096E-03  1.58731186564E-03
  1.60727779102E-03  1.62749485682E-03  1.64796622201E-03  1.66869508528E-03
  1.68968468554E-03  1.71093830248E-03  1.73245925701E-03  1.75425091182E-03
  1.77631667190E-03  1.79865998508E-03  1.82128434254E-03  1.84419327938E-03
  1.86739037518E-03  1.89087925452E-03  1.91466358759E-03  1.93874709075E-03
  1.96313352708E-03  1.98782670702E-03  2.01283048892E-03  2.03814877969E-03
  2.06378553534E-03  2.08974476169E-03  2.11603051491E-03  2.14264690220E-03
  2.16959808243E-03  2.19688826677E-03  2.22452171937E-03  2.25250275802E-03
  2.28083575481E-03  2.30952513682E-03  2.33857538684E-03  2.36799104401E-03
  2.39777670461E-03  2.42793702269E-03  2.45847671088E-03  2.48940054105E-03
  2.52071334512E-03  2.55242001578E-03  2.58452550726E-03  2.61703483611E-03
  2.64995308197E-03  2.68328538840E-03  2.71703696363E-03  2.75121308141E-03
  2.78581908183E-03  2.82086037215E-03  2.85634242765E-03  2.89227079246E-03
  2.92865108046E-03  2.96548897616E-03  3.00279023554E-03  3.04056068700E-03
  3.07880623226E-03  3.11753284726E-03  3.15674658310E-03  3.19645356702E-03
  3.23666000332E-03  3.27737217432E-03  3.31859644140E-03  3.36033924592E-03
  3.40260711028E-03  3.44540663893E-03  3.48874451938E-03  3.53262752325E-03
  3.57706250737E-03  3.62205641477E-03  3.66761627586E-03  3.71374920946E-03
  3.76046242392E-03  3.80776321829E-03  3.85565898341E-03  3.90415720309E-03
  3.95326545528E-03  4.00299141324E-03  4.05334284674E-03  4.10432762332E-03
  4.15595370944E-03  4.20822917178E-03  4.26116217849E-03  4.31476100045E-03
  4.36903401261E-03  4.42398969521E-03  4.47963663521E-03  4.53598352755E-03
  4.59303917654E-03  4.65081249724E-03  4.70931251687E-03  4.76854837615E-03
  4.82852933082E-03  4.88926475302E-03  4.95076413278E-03  5.01303707952E-03
  5.07609332349E-03  5.13994271738E-03  5.20459523777E-03  5.27006098676E-03
  5.33635019349E-03  5.40347321581E-03  5.47144054180E-03  5.54026279152E-03
  5.60995071856E-03  5.68051521182E-03  5.75196729714E-03  5.82431813905E-03
  5.89757904252E-03  5.97176145471E-03  6.04687696678E-03  6.12293731568E-03
  6.19995438599E-03  6.27794021179E-03  6.35690697852E-03  6.43686702490E-03
  6.51783284484E-03  6.59981708943E-03  6.68283256887E-03  6.76689225449E-03
  6.85200928079E-03  6.93819694749E-03  7.02546872157E-03  7.11383823944E-03
  7.20331930900E-03  7.29392591186E-03  7.38567220548E-03  7.47857252541E-03
  7.57264138752E-03  7.66789349025E-03  7.76434371693E-03  7.86200713812E-03
  7.96089901392E-03  8.06103479638E-03  8.16243013194E-03  8.26510086381E-03
  8.36906303450E-03  8.47433288832E-03  8.58092687390E-03  8.68886164675E-03
  8.79815407192E-03  8.90882122656E-03  9.02088040264E-03  9.13434910964E-03
  9.24924507727E-03  9.36558625826E-03  9.48339083116E-03  9.60267720317E-03
  9.72346401303E-03  9.84577013393E-03  9.96961467644E-03  1.00950169915E-02
  1.02219966736E-02  1.03505735634E-02  1.04807677513E-02  1.06125995806E-02
  1.07460896502E-02  1.08812588181E-02  1.10181282048E-02  1.11567191965E-02
  1.12970534483E-02  1.14391528876E-02  1.15830397179E-02  1.17287364217E-02
  1.18762657644E-02  1.20256507978E-02  1.21769148636E-02  1.23300815971E-02
  1.24851749310E-02  1.26422190988E-02  1.28012386391E-02  1.29622583990E-02
  1.31253035381E-02  1.32903995327E-02  1.34575721791E-02  1.36268475986E-02
  1.37982522408E-02  1.39718128880E-02  1.41475566593E-02  1.43255110152E-02
  1.45057037613E-02  1.46881630531E-02  1.48729174003E-02  1.50599956711E-02
  1.52494270968E-02  1.54412412766E-02  1.56354681817E-02  1.58321381605E-02
  1.60312819432E-02  1.62329306462E-02  1.64371157777E-02  1.66438692420E-02
  1.68532233447E-02  1.70652107979E-02  1.72798647249E-02  1.74972186660E-02
  1.77173065831E-02  1.79401628654E-02  1.81658223346E-02  1.83943202505E-02
  1.86256923164E-02  1.88599746846E-02  1.90972039623E-02  1.93374172169E-02
  1.95806519822E-02  1.98269462643E-02  2.00763385471E-02  2.03288677986E-02
  2.05845734771E-02  2.08434955371E-02  2.11056744356E-02  2.13711511388E-02
  2.16399671277E-02  2.19121644056E-02  2.21877855037E-02  2.24668734885E-02
  2.27494719679E-02  2.30356250986E-02  2.33253775926E-02  2.36187747244E-02
  2.39158623377E-02  2.42166868531E-02  2.45212952752E-02  2.48297351995E-02
  2.51420548205E-02  2.54583029387E-02  2.57785289685E-02  2.61027829459E-02
  2.64311155363E-02  2.67635780422E-02  2.71002224117E-02  2.74411012460E-02
  2.77862678083E-02  2.81357760314E-02  2.84896805268E-02  2.88480365927E-02
  2.92109002230E-02  2.95783281159E-02  2.99503776828E-02  3.03271070571E-02
  3.07085751036E-02  3.10948414274E-02  3.14859663835E-02  3.18820110858E-02
  3.22830374173E-02  3.26891080390E-02  3.31002864004E-02  3.35166367489E-02
  3.39382241400E-02  3.43651144477E-02  3.47973743745E-02  3.52350714618E-02
  3.56782741007E-02  3.61270515426E-02  3.65814739097E-02  3.70416122066E-02
  3.75075383307E-02  3.79793250840E-02  3.84570461841E-02  3.89407762759E-02
  3.94305909433E-02  3.99265667207E-02  4.04287811054E-02  4.09373125693E-02
  4.14522405717E-02  4.19736455710E-02  4.25016090378E-02  4.30362134674E-02
  4.35775423930E-02  4.41256803983E-02  4.46807131309E-02  4.52427273158E-02
  4.58118107689E-02  4.63880524107E-02  4.69715422800E-02  4.75623715483E-02
  4.81606325340E-02  4.87664187165E-02  4.93798247511E-02  5.00009464838E-02
  5.06298809662E-02  5.12667264704E-02  5.19115825050E-02  5.25645498299E-02
  5.32257304727E-02  5.38952277442E-02  5.45731462546E-02  5.52595919302E-02
  5.59546720295E-02  5.66584951600E-02  5.73711712958E-02  5.80928117938E-02
  5.88235294118E-02  5.95634383259E-02  6.03126541485E-02  6.10712939460E-02
  6.18394762574E-02  6.26173211128E-02  6.34049500520E-02  6.42024861437E-02
  6.50100540044E-02  6.58277798184E-02  6.66557913569E-02  6.74942179984E-02
  6.83431907487E-02  6.92028422617E-02  7.00733068596E-02  7.09547205542E-02
  7.18472210682E-02  7.27509478568E-02  7.36660421289E-02  7.45926468700E-02
  7.55309068640E-02  7.64809687158E-02  7.74429808746E-02  7.84170936567E-02
  7.94034592692E-02  8.04022318338E-02  8.14135674106E-02  8.24376240231E-02
  8.34745616820E-02  8.45245424109E-02  8.55877302717E-02  8.66642913894E-02
  8.77543939789E-02  8.88582083710E-02  8.99759070390E-02  9.11076646255E-02
  9.22536579700E-02  9.34140661362E-02  9.45890704403E-02  9.57788544791E-02
  9.69836041588E-02  9.82035077240E-02  9.94387557870E-02  1.00689541358E-01
  1.01956059875E-01  1.03238509233E-01  1.04537089818E-01  1.05852004537E-01
  1.07183458847E-01  1.08531660790E-01  1.09896821025E-01  1.11279152863E-01
  1.12678872295E-01  1.14096198030E-01  1.15531351528E-01  1.16984557034E-01
  1.18456041616E-01  1.19946035195E-01  1.21454770586E-01  1.22982483532E-01
  1.24529412742E-01  1.26095799925E-01  1.27681889834E-01  1.29287930298E-01
  1.30914172264E-01  1.32560869836E-01  1.34228280313E-01  1.35916664233E-01
  1.37626285407E-01  1.39357410969E-01  1.41110311410E-01  1.42885260624E-01
  1.44682535950E-01  1.46502418218E-01  1.48345191786E-01  1.50211144592E-01
  1.52100568195E-01  1.54013757821E-01  1.55951012411E-01  1.57912634663E-01
  1.59898931086E-01  1.61910212042E-01  1.63946791798E-01  1.66008988574E-01
  1.68097124592E-01  1.70211526128E-01  1.72352523561E-01  1.74520451426E-01
  1.76715648467E-01  1.78938457688E-01  1.81189226407E-01  1.83468306311E-01
  1.85776053511E-01  1.88112828598E-01  1.90478996696E-01  1.92874927526E-01
  1.95300995455E-01  1.97757579562E-01  2.00245063694E-01  2.02763836523E-01
  2.05314291615E-01  2.07896827483E-01  2.10511847653E-01  2.13159760727E-01
  2.15840980448E-01  2.18555925761E-01  2.21305020882E-01  2.24088695363E-01
  2.26907384159E-01  2.29761527694E-01  2.32651571937E-01  2.35577968460E-01
  2.38541174520E-01  2.41541653124E-01  2.44579873103E-01  2.47656309185E-01
  2.50771442069E-01  2.53925758501E-01  2.57119751349E-01  2.60353919681E-01
  2.63628768843E-01  2.66944810537E-01  2.70302562900E-01  2.73702550589E-01
  2.77145304858E-01  2.80631363645E-01  2.84161271654E-01  2.87735580439E-01
  2.91354848494E-01  2.95019641337E-01  2.98730531599E-01  3.02488099114E-01
  3.06292931011E-01  3.10145621801E-01  3.14046773475E-01  3.17996995597E-01
  3.21996905396E-01  3.26047127866E-01  3.30148295864E-01  3.34301050205E-01
  3.38506039765E-01  3.42763921582E-01  3.47075360960E-01  3.51441031569E-01
  3.55861615554E-01  3.60337803640E-01  3.64870295241E-01  3.69459798569E-01
  3.74107030741E-01  3.78812717898E-01  3.83577595314E-01  3.88402407508E-01
  3.93287908369E-01  3.98234861266E-01  4.03244039171E-01  4.08316224776E-01
  4.13452210623E-01  4.18652799219E-01  4.23918803166E-01  4.29251045289E-01
  4.34650358761E-01  4.40117587235E-01  4.45653584979E-01  4.51259217001E-01
  4.56935359195E-01  4.62682898467E-01  4.68502732884E-01  4.74395771807E-01
  4.80362936033E-01  4.86405157946E-01  4.92523381655E-01  4.98718563143E-01
  5.04991670422E-01  5.11343683677E-01  5.17775595423E-01  5.24288410659E-01
  5.30883147026E-01  5.37560834964E-01  5.44322517877E-01  5.51169252290E-01
  5.58102108021E-01  5.65122168342E-01  5.72230530151E-01  5.79428304144E-01
  5.86716614989E-01  5.94096601499E-01  6.01569416811E-01  6.09136228569E-01
  6.16798219102E-01  6.24556585611E-01  6.32412540357E-01  6.40367310850E-01
  6.48422140038E-01  6.56578286504E-01  6.64837024664E-01  6.73199644961E-01
  6.81667454072E-01  6.90241775110E-01  6.98923947829E-01  7.07715328838E-01
  7.16617291806E-01  7.25631227684E-01  7.34758544918E-01  7.44000669669E-01
  7.53359046039E-01  7.62835136292E-01  7.72430421088E-01  7.82146399708E-01
  7.91984590294E-01  8.01946530084E-01  8.12033775651E-01  8.22247903147E-01
  8.32590508552E-01  8.43063207917E-01  8.53667637623E-01  8.64405454635E-01
  8.75278336757E-01  8.86287982901E-01  8.97436113345E-01  9.08724470007E-01
  9.20154816717E-01  9.31728939489E-01  9.43448646803E-01  9.55315769888E-01
  9.67332163006E-01  9.79499703742E-01  9.91820293299E-01  1.00429585680E+00
  1.01692834356E+00  1.02971972745E+00  1.04267200714E+00  1.05578720646E+00
  1.06906737467E+00  1.08251458684E+00  1.09613094411E+00  1.10991857407E+00
  1.12387963107E+00  1.13801629655E+00  1.15233077939E+00  1.16682531626E+00
  1.18150217195E+00  1.19636363977E+00  1.21141204184E+00  1.22664972950E+00
  1.24207908368E+00  1.25770251524E+00  1.27352246538E+00  1.28954140600E+00
  1.30576184008E+00  1.32218630211E+00  1.33881735844E+00  1.35565760771E+00
  1.37270968123E+00  1.38997624344E+00  1.40745999226E+00  1.42516365957E+00
  1.44309001159E+00  1.46124184937E+00  1.47962200917E+00  1.49823336291E+00
  1.51707881866E+00  1.53616132106E+00  1.55548385180E+00  1.57504943005E+00
  1.59486111298E+00  1.61492199620E+00  1.63523521427E+00  1.65580394117E+00
  1.67663139081E+00  1.69772081751E+00  1.71907551654E+00  1.74069882462E+00
  1.76259412044E+00  1.78476482516E+00  1.80721440303E+00  1.82994636182E+00
  1.85296425346E+00  1.87627167452E+00  1.89987226686E+00  1.92376971810E+00
  1.94796776228E+00  1.97247018038E+00  1.99728080096E+00  2.02240350072E+00
  2.04784220515E+00  2.07360088909E+00  2.09968357739E+00  2.12609434552E+00
  2.15283732022E+00  2.17991668012E+00  2.20733665645E+00  2.23510153361E+00
  2.26321564994E+00  2.29168339832E+00  2.32050922689E+00  2.34969763975E+00
  2.37925319765E+00  2.40918051870E+00  2.43948427911E+00  2.47016921390E+00
  2.50124011765E+00  2.53270184526E+00  2.56455931269E+00  2.59681749773E+00
  2.62948144078E+00  2.66255624566E+00  2.69604708037E+00  2.72995917792E+00
  2.76429783715E+00  2.79906842354E+00  2.83427637006E+00  2.86992717804E+00
  2.90602641797E+00  2.94257973045E+00  2.97959282699E+00  3.01707149098E+00
  3.05502157852E+00  3.09344901940E+00  3.13235981798E+00  3.17176005416E+00
  3.21165588430E+00  3.25205354221E+00  3.29295934010E+00  3.33437966958E+00
  3.37632100267E+00  3.41878989279E+00  3.46179297579E+00  3.50533697097E+00
  3.54942868220E+00  3.59407499887E+00  3.63928289708E+00  3.68505944064E+00
  3.73141178224E+00  3.77834716452E+00  3.82587292124E+00  3.87399647838E+00
  3.92272535535E+00  3.97206716614E+00  4.02202962050E+00  4.07262052518E+00
  4.12384778510E+00  4.17571940463E+00  4.22824348880E+00  4.28142824463E+00
  4.33528198233E+00  4.38981311666E+00  4.44503016822E+00  4.50094176479E+00
  4.55755664266E+00  4.61488364804E+00  4.67293173837E+00  4.73170998379E+00
  4.79122756853E+00  4.85149379232E+00  4.91251807188E+00  4.97430994239E+00
  5.03687905895E+00  5.10023519811E+00  5.16438825940E+00  5.22934826686E+00
  5.29512537062E+00  5.36172984849E+00  5.42917210757E+00  5.49746268583E+00
  5.56661225382E+00  5.63663161630E+00  5.70753171394E+00  5.77932362502E+00
  5.85201856717E+00  5.92562789913E+00  6.00016312251E+00  6.07563588358E+00
  6.15205797512E+00  6.22944133824E+00  6.30779806424E+00  6.38714039652E+00
  6.46748073248E+00  6.54883162546E+00  6.63120578671E+00  6.71461608735E+00
  6.79907556042E+00  6.88459740288E+00  6.97119497769E+00  7.05888181590E+00
  7.14767161875E+00  7.23757825983E+00  7.32861578725E+00  7.42079842579E+00
  7.51414057918E+00  7.60865683232E+00  7.70436195358E+00  7.80127089706E+00
  7.89939880500E+00  7.99876101006E+00  8.09937303782E+00  8.20125060908E+00
  8.30440964244E+00  8.40886625670E+00  8.51463677342E+00  8.62173771946E+00
  8.73018582956E+00  8.83999804896E+00  8.95119153604E+00  9.06378366501E+00
  9.17779202861E+00  9.29323444089E+00  9.41012893996E+00  9.52849379083E+00
  9.64834748823E+00  9.76970875956E+00  9.89259656776E+00  1.00170301143E+01
  1.01430288422E+01  1.02706124389E+01  1.03998008398E+01  1.05306142307E+01
  1.06630730515E+01  1.07971979991E+01  1.09330100309E+01  1.10705303678E+01
  1.12097804976E+01  1.13507821783E+01  1.14935574419E+01  1.16381285972E+01
  1.17845182338E+01  1.19327492253E+01  1.20828447332E+01  1.22348282102E+01
  1.23887234039E+01  1.25445543609E+01  1.27023454300E+01  1.28621212665E+01
  1.30239068355E+01  1.31877274165E+01  1.33536086068E+01  1.35215763255E+01
  1.36916568181E+01  1.38638766599E+01  1.40382627606E+01  1.42148423685E+01
  1.43936430744E+01  1.45746928163E+01  1.47580198836E+01  1.49436529215E+01
  1.51316209356E+01  1.53219532963E+01  1.55146797433E+01  1.57098303907E+01
  1.59074357310E+01  1.61075266404E+01  1.63101343837E+01  1.65152906187E+01
  1.67230274014E+01  1.69333771912E+01  1.71463728556E+01  1.73620476757E+01
  1.75804353510E+01  1.78015700051E+01  1.80254861908E+01  1.82522188953E+01
  1.84818035462E+01  1.87142760165E+01  1.89496726305E+01  1.91880301694E+01
  1.94293858770E+01  1.96737774658E+01  1.99212431222E+01  2.01718215135E+01
  2.04255517929E+01  2.06824736063E+01  2.09426270983E+01  2.12060529184E+01
  2.14727922274E+01  2.17428867038E+01  2.20163785506E+01  2.22933105013E+01
  2.25737258271E+01  2.28576683435E+01  2.31451824171E+01  2.34363129726E+01
  2.37311054996E+01  2.40296060601E+01  2.43318612955E+01  2.46379184337E+01
  2.49478252968E+01  2.52616303083E+01  2.55793825010E+01  2.59011315242E+01
  2.62269276519E+01  2.65568217904E+01  2.68908654864E+01  2.72291109348E+01
  2.75716109872E+01  2.79184191599E+01  2.82695896424E+01  2.86251773058E+01
  2.89852377114E+01  2.93498271193E+01  2.97190024975E+01  3.00928215302E+01
  3.04713426275E+01  3.08546249342E+01  3.12427283387E+01  3.16357134831E+01
  3.20336417721E+01  3.24365753828E+01  3.28445772744E+01  3.32577111980E+01
  3.36760417067E+01  3.40996341654E+01  3.45285547613E+01  3.49628705141E+01
  3.54026492866E+01  3.58479597951E+01  3.62988716202E+01  3.67554552178E+01
  3.72177819301E+01  3.76859239966E+01  3.81599545653E+01  3.86399477046E+01
  3.91259784144E+01  3.96181226378E+01  4.01164572736E+01  4.06210601874E+01
  4.11320102245E+01  4.16493872218E+01  4.21732720207E+01  4.27037464791E+01
  4.32408934848E+01  4.37847969681E+01  4.43355419150E+01  4.48932143805E+01
  4.54579015021E+01  4.60296915133E+01  4.66086737574E+01  4.71949387016E+01
  4.77885779510E+01  4.83896842630E+01  4.89983515616E+01  4.96146749522E+01
  5.02387507368E+01  5.08706764284E+01  5.15105507667E+01  5.21584737334E+01
  5.28145465677E+01  5.34788717823E+01  5.41515531795E+01  5.48326958670E+01
  5.55224062748E+01  5.62207921715E+01  5.69279626815E+01  5.76440283013E+01
  5.83691009179E+01  5.91032938253E+01  5.98467217426E+01  6.05995008319E+01
  6.13617487165E+01  6.21335844992E+01  6.29151287808E+01  6.37065036794E+01
  6.45078328487E+01  6.53192414982E+01  6.61408564121E+01  6.69728059693E+01
  6.78152201637E+01  6.86682306243E+01  6.95319706356E+01  7.04065751587E+01
  7.12921808525E+01  7.21889260946E+01  7.30969510032E+01  7.40163974592E+01
  7.49474091279E+01  7.58901314817E+01  7.68447118229E+01  7.78112993067E+01
  7.87900449644E+01  7.97811017268E+01  8.07846244488E+01  8.18007699326E+01
  8.28296969532E+01  8.38715662825E+01  8.49265407146E+01  8.59947850915E+01
  8.70764663285E+01  8.81717534405E+01  8.92808175685E+01  9.04038320057E+01
  9.15409722257E+01  9.26924159088E+01  9.38583429705E+01  9.50389355893E+01
  9.62343782351E+01  9.74448576982E+01  9.86705631187E+01  9.99116860153E+01
  1.01168420316E+02
  </PP_R>
  <PP_RAB>
  6.70501445261E-07  6.78935315198E-07  6.87475270159E-07  6.96122644530E-07
  7.04878789481E-07  7.13745073176E-07  7.22722880992E-07  7.31813615728E-07
  7.41018697830E-07  7.50339565611E-07  7.59777675476E-07  7.69334502149E-07
  7.79011538903E-07  7.88810297794E-07  7.98732309900E-07  8.08779125554E-07
  8.18952314592E-07  8.29253466595E-07  8.39684191139E-07  8.50246118047E-07
  8.60940897641E-07  8.71770201001E-07  8.82735720229E-07  8.93839168709E-07
  9.05082281378E-07  9.16466814994E-07  9.27994548415E-07  9.39667282872E-07
  9.51486842254E-07  9.63455073391E-07  9.75573846343E-07  9.87845054694E-07
  1.00027061584E-06  1.01285247131E-06  1.02559258704E-06  1.03849295370E-06
  1.05155558699E-06  1.06478252798E-06  1.07817584341E-06  1.09173762601E-06
  1.10546999484E-06  1.11937509560E-06  1.13345510099E-06  1.14771221105E-06
  1.16214865348E-06  1.17676668400E-06  1.19156858671E-06  1.20655667444E-06
  1.22173328910E-06  1.23710080207E-06  1.25266161456E-06  1.26841815798E-06
  1.28437289431E-06  1.30052831652E-06  1.31688694893E-06  1.33345134760E-06
  1.35022410076E-06  1.36720782918E-06  1.38440518660E-06  1.40181886015E-06
  1.41945157076E-06  1.43730607355E-06  1.45538515835E-06  1.47369165004E-06
  1.49222840904E-06  1.51099833177E-06  1.53000435107E-06  1.54924943665E-06
  1.56873659562E-06  1.58846887286E-06  1.60844935161E-06  1.62868115383E-06
  1.64916744080E-06  1.66991141353E-06  1.69091631333E-06  1.71218542223E-06
  1.73372206360E-06  1.75552960256E-06  1.77761144659E-06  1.79997104603E-06
  1.82261189461E-06  1.84553753000E-06  1.86875153439E-06  1.89225753501E-06
  1.91605920471E-06  1.94016026257E-06  1.96456447441E-06  1.98927565345E-06
  2.01429766086E-06  2.03963440637E-06  2.06528984892E-06  2.09126799720E-06
  2.11757291036E-06  2.14420869860E-06  2.17117952380E-06  2.19848960023E-06
  2.22614319513E-06  2.25414462943E-06  2.28249827842E-06  2.31120857241E-06
  2.34027999743E-06  2.36971709597E-06  2.39952446763E-06  2.42970676987E-06
  2.46026871873E-06  2.49121508958E-06  2.52255071787E-06  2.55428049983E-06
  2.58640939332E-06  2.61894241854E-06  2.65188465884E-06  2.68524126151E-06
  2.71901743859E-06  2.75321846768E-06  2.78784969276E-06  2.82291652502E-06
  2.85842444373E-06  2.89437899708E-06  2.93078580304E-06  2.96765055023E-06
  3.00497899887E-06  3.04277698159E-06  3.08105040440E-06  3.11980524761E-06
  3.15904756673E-06  3.19878349346E-06  3.23901923662E-06  3.27976108313E-06
  3.32101539898E-06  3.36278863024E-06  3.40508730407E-06  3.44791802971E-06
  3.49128749957E-06  3.53520249019E-06  3.57966986340E-06  3.62469656731E-06
  3.67028963743E-06  3.71645619778E-06  3.76320346197E-06  3.81053873435E-06
  3.85846941116E-06  3.90700298167E-06  3.95614702935E-06  4.00590923304E-06
  4.05629736821E-06  4.10731930809E-06  4.15898302497E-06  4.21129659140E-06
  4.26426818150E-06  4.31790607218E-06  4.37221864446E-06  4.42721438481E-06
  4.48290188641E-06  4.53928985055E-06  4.59638708796E-06  4.65420252021E-06
  4.71274518107E-06  4.77202421795E-06  4.83204889333E-06  4.89282858618E-06
  4.95437279345E-06  5.01669113154E-06  5.07979333783E-06  5.14368927217E-06
  5.20838891842E-06  5.27390238604E-06  5.34023991163E-06  5.40741186057E-06
  5.47542872862E-06  5.54430114355E-06  5.61403986681E-06  5.68465579522E-06
  5.75615996267E-06  5.82856354182E-06  5.90187784588E-06  5.97611433036E-06
  6.05128459487E-06  6.12740038490E-06  6.20447359371E-06  6.28251626415E-06
  6.36154059053E-06  6.44155892057E-06  6.52258375730E-06  6.60462776101E-06
  6.68770375125E-06  6.77182470880E-06  6.85700377774E-06  6.94325426747E-06
  7.03058965481E-06  7.11902358609E-06  7.20856987928E-06  7.29924252618E-06
  7.39105569458E-06  7.48402373047E-06  7.57816116029E-06  7.67348269322E-06
  7.77000322342E-06  7.86773783244E-06  7.96670179150E-06  8.06691056392E-06
  8.16837980753E-06  8.27112537711E-06  8.37516332685E-06  8.48050991290E-06
  8.58718159588E-06  8.69519504345E-06  8.80456713294E-06  8.91531495396E-06
  9.02745581108E-06  9.14100722653E-06  9.25598694297E-06  9.37241292619E-06
  9.49030336800E-06  9.60967668902E-06  9.73055154157E-06  9.85294681260E-06
  9.97688162662E-06  1.01023753487E-05  1.02294475875E-05  1.03581181982E-05
  1.04884072860E-05  1.06203352088E-05  1.07539225806E-05  1.08891902746E-05
  1.10261594268E-05  1.11648514389E-05  1.13052879816E-05  1.14474909987E-05
  1.15914827095E-05  1.17372856130E-05  1.18849224913E-05  1.20344164129E-05
  1.21857907366E-05  1.23390691149E-05  1.24942754978E-05  1.26514341367E-05
  1.28105695879E-05  1.29717067166E-05  1.31348707010E-05  1.33000870356E-05
  1.34673815358E-05  1.36367803419E-05  1.38083099226E-05  1.39819970798E-05
  1.41578689525E-05  1.43359530210E-05  1.45162771114E-05  1.46988693996E-05
  1.48837584160E-05  1.50709730500E-05  1.52605425542E-05  1.54524965492E-05
  1.56468650282E-05  1.58436783617E-05  1.60429673022E-05  1.62447629890E-05
  1.64490969531E-05  1.66560011220E-05  1.68655078249E-05  1.70776497978E-05
  1.72924601882E-05  1.75099725607E-05  1.77302209021E-05  1.79532396265E-05
  1.81790635811E-05  1.84077280514E-05  1.86392687667E-05  1.88737219056E-05
  1.91111241020E-05  1.93515124504E-05  1.95949245120E-05  1.98413983204E-05
  2.00909723877E-05  2.03436857103E-05  2.05995777752E-05  2.08586885660E-05
  2.11210585693E-05  2.13867287810E-05  2.16557407126E-05  2.19281363977E-05
  2.22039583988E-05  2.24832498135E-05  2.27660542817E-05  2.30524159923E-05
  2.33423796898E-05  2.36359906815E-05  2.39332948449E-05  2.42343386343E-05
  2.45391690885E-05  2.48478338377E-05  2.51603811115E-05  2.54768597461E-05
  2.57973191918E-05  2.61218095211E-05  2.64503814363E-05  2.67830862775E-05
  2.71199760303E-05  2.74611033346E-05  2.78065214922E-05  2.81562844753E-05
  2.85104469351E-05  2.88690642103E-05  2.92321923355E-05  2.95998880502E-05
  2.99722088076E-05  3.03492127837E-05  3.07309588860E-05  3.11175067631E-05
  3.15089168140E-05  3.19052501972E-05  3.23065688407E-05  3.27129354513E-05
  3.31244135247E-05  3.35410673550E-05  3.39629620454E-05  3.43901635176E-05
  3.48227385229E-05  3.52607546519E-05  3.57042803456E-05  3.61533849057E-05
  3.66081385058E-05  3.70686122020E-05  3.75348779442E-05  3.80070085875E-05