<PP_INFO>
Generated using "atomic" code by A. Dal Corso  (Quantum ESPRESSO distributi
Author: D.C.   Generation date: 24May2010                                  
H                                                                          
    1        The Pseudo was generated with a Scalar-Relativistic Calculation
    1 8.0000000E-01    L component and cutoff radius for Local Potential
nl pn  l   occ               Rcut            Rcut US             E pseu
1S  1  0  1.00      0.60000000000      0.80000000000     -0.47721387716
1S  1  0  0.00      0.60000000000      0.80000000000      0.50000000000
2P  2  1  0.00      0.80000000000      0.80000000000      0.10000000000
</PP_INFO>


<PP_HEADER>
   0                   Version Number
   H                   Element
   US                  Ultrasoft pseudopotential
    F                  Nonlinear Core Correction
 SLA  PW   PBX  PBC    PBE    Exchange-Correlation functional
    1.00000000000      Z valence
   -0.91786682603      Total energy
     72.531   1385.363 Suggested cutoff for wfc and rho
    1                  Max angular momentum component
  581                  Number of points in mesh
    2    2             Number of Wavefunctions, Number of Projectors
 Wavefunctions         nl  l   occ
                       1S  0  1.00
                       2S  0  0.00
</PP_HEADER>


<PP_MESH>
  <PP_R>
  9.11881965555E-04  9.30303203205E-04  9.49096574541E-04  9.68269597161E-04
  9.87829940531E-04  1.00778542905E-03  1.02814404517E-03  1.04891393263E-03
  1.07010339964E-03  1.09172092228E-03  1.11377514784E-03  1.13627489832E-03
  1.15922917390E-03  1.18264715662E-03  1.20653821396E-03  1.23091190267E-03
  1.25577797256E-03  1.28114637038E-03  1.30702724384E-03  1.33343094561E-03
  1.36036803755E-03  1.38784929484E-03  1.41588571035E-03  1.44448849902E-03
  1.47366910235E-03  1.50343919298E-03  1.53381067932E-03  1.56479571039E-03
  1.59640668061E-03  1.62865623479E-03  1.66155727317E-03  1.69512295662E-03
  1.72936671186E-03  1.76430223683E-03  1.79994350623E-03  1.83630477703E-03
  1.87340059422E-03  1.91124579663E-03  1.94985552285E-03  1.98924521727E-03
  2.02943063630E-03  2.07042785464E-03  2.11225327173E-03  2.15492361830E-03
  2.19845596304E-03  2.24286771949E-03  2.28817665292E-03  2.33440088753E-03
  2.38155891362E-03  2.42966959502E-03  2.47875217667E-03  2.52882629223E-03
  2.57991197203E-03  2.63202965101E-03  2.68520017695E-03  2.73944481877E-03
  2.79478527504E-03  2.85124368268E-03  2.90884262581E-03  2.96760514478E-03
  3.02755474538E-03  3.08871540824E-03  3.15111159844E-03  3.21476827531E-03
  3.27971090234E-03  3.34596545747E-03  3.41355844340E-03  3.48251689821E-03
  3.55286840622E-03  3.62464110897E-03  3.69786371648E-03  3.77256551879E-03
  3.84877639761E-03  3.92652683831E-03  4.00584794209E-03  4.08677143846E-03
  4.16932969790E-03  4.25355574482E-03  4.33948327074E-03  4.42714664783E-03
  4.51658094261E-03  4.60782192999E-03  4.70090610758E-03  4.79587071030E-03
  4.89275372524E-03  4.99159390691E-03  5.09243079270E-03  5.19530471871E-03
  5.30025683587E-03  5.40732912644E-03  5.51656442076E-03  5.62800641440E-03
  5.74169968565E-03  5.85768971334E-03  5.97602289501E-03  6.09674656552E-03
  6.21990901594E-03  6.34555951291E-03  6.47374831829E-03  6.60452670931E-03
  6.73794699909E-03  6.87406255750E-03  7.01292783259E-03  7.15459837231E-03
  7.29913084679E-03  7.44658307092E-03  7.59701402758E-03  7.75048389114E-03
  7.90705405159E-03  8.06678713910E-03  8.22974704902E-03  8.39599896749E-03
  8.56560939750E-03  8.73864618547E-03  8.91517854844E-03  9.09527710170E-03
  9.27901388706E-03  9.46646240171E-03  9.65769762754E-03  9.85279606119E-03
  1.00518357446E-02  1.02548962964E-02  1.04620589434E-02  1.06734065535E-02
  1.08890236686E-02  1.11089965382E-02  1.13334131547E-02  1.15623632875E-02
  1.17959385198E-02  1.20342322847E-02  1.22773399031E-02  1.25253586211E-02
  1.27783876495E-02  1.30365282034E-02  1.32998835424E-02  1.35685590122E-02
  1.38426620865E-02  1.41223024102E-02  1.44075918431E-02  1.46986445049E-02
  1.49955768205E-02  1.52985075667E-02  1.56075579200E-02  1.59228515045E-02
  1.62445144419E-02  1.65726754018E-02  1.69074656527E-02  1.72490191153E-02
  1.75974724156E-02  1.79529649395E-02  1.83156388887E-02  1.86856393377E-02
  1.90631142916E-02  1.94482147454E-02  1.98410947444E-02  2.02419114458E-02
  2.06508251817E-02  2.10679995230E-02  2.14936013451E-02  2.19278008943E-02
  2.23707718562E-02  2.28226914251E-02  2.32837403749E-02  2.37541031313E-02
  2.42339678457E-02  2.47235264703E-02  2.52229748352E-02  2.57325127264E-02
  2.62523439657E-02  2.67826764926E-02  2.73237224473E-02  2.78756982552E-02
  2.84388247142E-02  2.90133270822E-02  2.95994351679E-02  3.01973834223E-02
  3.08074110328E-02  3.14297620184E-02  3.20646853279E-02  3.27124349390E-02
  3.33732699603E-02  3.40474547346E-02  3.47352589447E-02  3.54369577216E-02
  3.61528317540E-02  3.68831674012E-02  3.76282568072E-02  3.83883980176E-02
  3.91638950990E-02  3.99550582607E-02  4.07622039784E-02  4.15856551212E-02
  4.24257410805E-02  4.32827979020E-02  4.41571684197E-02  4.50492023936E-02
  4.59592566490E-02  4.68876952200E-02  4.78348894942E-02  4.88012183620E-02
  4.97870683679E-02  5.07928338649E-02  5.18189171727E-02  5.28657287384E-02
  5.39336873004E-02  5.50232200564E-02  5.61347628341E-02  5.72687602655E-02
  5.84256659645E-02  5.96059427089E-02  6.08100626252E-02  6.20385073774E-02
  6.32917683596E-02  6.45703468932E-02  6.58747544264E-02  6.72055127397E-02
  6.85631541543E-02  6.99482217447E-02  7.13612695564E-02  7.28028628274E-02
  7.42735782143E-02  7.57740040228E-02  7.73047404433E-02  7.88663997907E-02
  8.04596067495E-02  8.20849986239E-02  8.37432255922E-02  8.54349509673E-02
  8.71608514620E-02  8.89216174594E-02  9.07179532894E-02  9.25505775103E-02
  9.44202231963E-02  9.63276382305E-02  9.82735856044E-02  1.00258843723E-01
  1.02284206716E-01  1.04350484755E-01  1.06458504379E-01  1.08609108825E-01
  1.10803158362E-01  1.13041530640E-01  1.15325121038E-01  1.17654843022E-01
  1.20031628511E-01  1.22456428253E-01  1.24930212199E-01  1.27453969895E-01
  1.30028710878E-01  1.32655465080E-01  1.35335283237E-01  1.38069237311E-01
  1.40858420921E-01  1.43703949778E-01  1.46606962130E-01  1.49568619223E-01
  1.52590105757E-01  1.55672630368E-01  1.58817426107E-01  1.62025750934E-01
  1.65298888222E-01  1.68638147269E-01  1.72044863823E-01  1.75520400617E-01
  1.79066147911E-01  1.82683524053E-01  1.86373976039E-01  1.90138980102E-01
  1.93980042291E-01  1.97898699084E-01  2.01896517995E-01  2.05975098205E-01
  2.10136071201E-01  2.14381101427E-01  2.18711886952E-01  2.23130160148E-01
  2.27637688384E-01  2.32236274730E-01  2.36927758682E-01  2.41714016897E-01
  2.46596963942E-01  2.51578553060E-01  2.56660776954E-01  2.61845668580E-01
  2.67135301966E-01  2.72531793034E-01  2.78037300453E-01  2.83654026500E-01
  2.89384217939E-01  2.95230166924E-01  3.01194211912E-01  3.07278738601E-01
  3.13486180883E-01  3.19819021816E-01  3.26279794623E-01  3.32871083698E-01
  3.39595525645E-01  3.46455810330E-01  3.53454681959E-01  3.60594940173E-01
  3.67879441171E-01  3.75311098851E-01  3.82892885975E-01  3.90627835359E-01
  3.98519041085E-01  4.06569659741E-01  4.14782911682E-01  4.23162082318E-01
  4.31710523429E-01  4.40431654506E-01  4.49328964117E-01  4.58406011305E-01
  4.67666427010E-01  4.77113915521E-01  4.86752255960E-01  4.96585303791E-01
  5.06616992366E-01  5.16851334492E-01  5.27292424043E-01  5.37944437595E-01
  5.48811636094E-01  5.59898366565E-01  5.71209063849E-01  5.82748252374E-01
  5.94520547970E-01  6.06530659713E-01  6.18783391806E-01  6.31283645507E-01
  6.44036421083E-01  6.57046819815E-01  6.70320046036E-01  6.83861409212E-01
  6.97676326071E-01  7.11770322763E-01  7.26149037074E-01  7.40818220682E-01
  7.55783741456E-01  7.71051585804E-01  7.86627861067E-01  8.02518797962E-01
  8.18730753078E-01  8.35270211411E-01  8.52143788966E-01  8.69358235399E-01
  8.86920436717E-01  9.04837418036E-01  9.23116346387E-01  9.41764533584E-01
  9.60789439152E-01  9.80198673307E-01  1.00000000000E+00  1.02020134003E+00
  1.04081077419E+00  1.06183654655E+00  1.08328706767E+00  1.10517091808E+00
  1.12749685158E+00  1.15027379886E+00  1.17351087099E+00  1.19721736312E+00
  1.22140275816E+00  1.24607673059E+00  1.27124915032E+00  1.29693008667E+00
  1.32312981234E+00  1.34985880758E+00  1.37712776434E+00  1.40494759056E+00
  1.43332941456E+00  1.46228458943E+00  1.49182469764E+00  1.52196155562E+00
  1.55270721851E+00  1.58407398499E+00  1.61607440219E+00  1.64872127070E+00
  1.68202764970E+00  1.71600686218E+00  1.75067250030E+00  1.78603843075E+00
  1.82211880039E+00  1.85892804185E+00  1.89648087930E+00  1.93479233440E+00
  1.97387773223E+00  2.01375270747E+00  2.05443321064E+00  2.09593551449E+00
  2.13827622050E+00  2.18147226550E+00  2.22554092849E+00  2.27049983753E+00
  2.31636697678E+00  2.36316069371E+00  2.41089970642E+00  2.45960311116E+00
  2.50929038994E+00  2.55998141833E+00  2.61169647342E+00  2.66445624193E+00
  2.71828182846E+00  2.77319476396E+00  2.82921701435E+00  2.88637098927E+00
  2.94467955107E+00  3.00416602395E+00  3.06485420329E+00  3.12676836519E+00
  3.18993327612E+00  3.25437420289E+00  3.32011692274E+00  3.38718773362E+00
  3.45561346476E+00  3.52542148737E+00  3.59663972557E+00  3.66929666762E+00
  3.74342137726E+00  3.81904350537E+00  3.89619330180E+00  3.97490162749E+00
  4.05519996684E+00  4.13712044025E+00  4.22069581700E+00  4.30595952835E+00
  4.39294568092E+00  4.48168907034E+00  4.57222519514E+00  4.66459027099E+00
  4.75882124514E+00  4.85495581124E+00  4.95303242440E+00  5.05309031656E+00
  5.15516951223E+00  5.25931084445E+00  5.36555597112E+00  5.47394739173E+00
  5.58452846428E+00  5.69734342267E+00  5.81243739440E+00  5.92985641859E+00
  6.04964746441E+00  6.17185844988E+00  6.29653826103E+00  6.42373677143E+00
  6.55350486219E+00  6.68589444228E+00  6.82095846929E+00  6.95875097064E+00
  7.09932706516E+00  7.24274298516E+00  7.38905609893E+00  7.53832493366E+00
  7.69060919888E+00  7.84596981032E+00  8.00446891430E+00  8.16616991257E+00
  8.33113748769E+00  8.49943762889E+00  8.67113765846E+00  8.84630625872E+00
  9.02501349943E+00  9.20733086588E+00  9.39333128744E+00  9.58308916676E+00
  9.77668040953E+00  9.97418245481E+00  1.01756743061E+01  1.03812365627E+01
  1.05909514524E+01  1.08049028639E+01  1.10231763806E+01  1.12458593149E+01
  1.14730407428E+01  1.17048115400E+01  1.19412644178E+01  1.21824939607E+01
  1.24285966636E+01  1.26796709708E+01  1.29358173155E+01  1.31971381597E+01
  1.34637380350E+01  1.37357235851E+01  1.40132036077E+01  1.42962890987E+01
  1.45850932959E+01  1.48797317249E+01  1.51803222450E+01  1.54869850963E+01
  1.57998429483E+01  1.61190209480E+01  1.64446467711E+01  1.67768506721E+01
  1.71157655371E+01  1.74615269366E+01  1.78142731796E+01  1.81741453694E+01
  1.85412874597E+01  1.89158463123E+01  1.92979717555E+01  1.96878166448E+01
  2.00855369232E+01  2.04912916842E+01  2.09052432351E+01  2.13275571620E+01
  2.17584023962E+01  2.21979512814E+01  2.26463796432E+01  2.31038668587E+01
  2.35705959291E+01  2.40467535521E+01  2.45325301971E+01  2.50281201813E+01
  2.55337217474E+01  2.60495371425E+01  2.65757726999E+01  2.71126389207E+01
  2.76603505585E+01  2.82191267054E+01  2.87891908792E+01  2.93707711133E+01
  2.99641000474E+01  3.05694150211E+01  3.11869581683E+01  3.18169765147E+01
  3.24597220759E+01  3.31154519587E+01  3.37844284638E+01  3.44669191909E+01
  3.51631971451E+01  3.58735408471E+01  3.65982344437E+01  3.73375678221E+01
  3.80918367254E+01  3.88613428713E+01  3.96463940726E+01  4.04473043601E+01
  4.12643941086E+01  4.20979901650E+01  4.29484259788E+01  4.38160417356E+01
  4.47011844933E+01  4.56042083208E+01  4.65254744398E+01  4.74653513689E+01
  4.84242150713E+01  4.94024491055E+01  5.04004447781E+01  5.14186013005E+01
  5.24573259491E+01  5.35170342275E+01  5.45981500331E+01  5.57011058268E+01
  5.68263428055E+01  5.79743110790E+01  5.91454698499E+01  6.03402875974E+01
  6.15592422644E+01  6.28028214492E+01  6.40715225999E+01  6.53658532140E+01
  6.66863310409E+01  6.80334842894E+01  6.94078518388E+01  7.08099834543E+01
  7.22404400073E+01  7.36997936996E+01  7.51886282920E+01  7.67075393383E+01
  7.82571344231E+01  7.98380334051E+01  8.14508686650E+01  8.30962853583E+01
  8.47749416738E+01  8.64875090963E+01  8.82346726757E+01  9.00171313005E+01
  9.18355979782E+01  9.36908001195E+01  9.55834798301E+01  9.75143942071E+01
  9.94843156419E+01
  </PP_R>
  <PP_RAB>
  1.82376393111E-05  1.86060640641E-05  1.89819314908E-05  1.93653919432E-05
  1.97565988106E-05  2.01557085810E-05  2.05628809035E-05  2.09782786526E-05
  2.14020679928E-05  2.18344184456E-05  2.22755029569E-05  2.27254979664E-05
  2.31845834781E-05  2.36529431323E-05  2.41307642792E-05  2.46182380535E-05
  2.51155594512E-05  2.56229274077E-05  2.61405448767E-05  2.66686189123E-05
  2.72073607510E-05  2.77569858967E-05  2.83177142069E-05  2.88897699804E-05
  2.94733820471E-05  3.00687838596E-05  3.06762135865E-05  3.12959142079E-05
  3.19281336122E-05  3.25731246958E-05  3.32311454635E-05  3.39024591325E-05
  3.45873342371E-05  3.52860447367E-05  3.59988701246E-05  3.67260955406E-05
  3.74680118844E-05  3.82249159327E-05  3.89971104569E-05  3.97849043453E-05
  4.05886127259E-05  4.14085570928E-05  4.22450654347E-05  4.30984723660E-05
  4.39691192609E-05  4.48573543897E-05  4.57635330584E-05  4.66880177506E-05
  4.76311782723E-05  4.85933919005E-05  4.95750435333E-05  5.05765258446E-05
  5.15982394405E-05  5.26405930203E-05  5.37040035391E-05  5.47888963754E-05
  5.58957055007E-05  5.70248736536E-05  5.81768525163E-05  5.93521028956E-05
  6.05510949075E-05  6.17743081647E-05  6.30222319689E-05  6.42953655061E-05
  6.55942180469E-05  6.69193091494E-05  6.82711688679E-05  6.96503379642E-05
  7.10573681244E-05  7.24928221793E-05  7.39572743297E-05  7.54513103758E-05
  7.69755279522E-05  7.85305367661E-05  8.01169588418E-05  8.17354287693E-05
  8.33865939581E-05  8.50711148963E-05  8.67896654148E-05  8.85429329566E-05
  9.03316188523E-05  9.21564385999E-05  9.40181221517E-05  9.59174142059E-05
  9.78550745048E-05  9.98318781382E-05  1.01848615854E-04  1.03906094374E-04
  1.06005136717E-04  1.08146582529E-04  1.10331288415E-04  1.12560128288E-04
  1.14833993713E-04  1.17153794267E-04  1.19520457900E-04  1.21934931310E-04
  1.24398180319E-04  1.26911190258E-04  1.29474966366E-04  1.32090534186E-04
  1.34758939982E-04  1.37481251150E-04  1.40258556652E-04  1.43091967446E-04
  1.45982616936E-04  1.48931661418E-04  1.51940280552E-04  1.55009677823E-04
  1.58141081032E-04  1.61335742782E-04  1.64594940980E-04  1.67919979350E-04
  1.71312187950E-04  1.74772923709E-04  1.78303570969E-04  1.81905542034E-04
  1.85580277741E-04  1.89329248034E-04  1.93153952551E-04  1.97055921224E-04
  2.01036714893E-04  2.05097925928E-04  2.09241178869E-04  2.13468131070E-04
  2.17780473371E-04  2.22179930765E-04  2.26668263093E-04  2.31247265749E-04
  2.35918770395E-04  2.40684645694E-04  2.45546798061E-04  2.50507172421E-04
  2.55567752991E-04  2.60730564069E-04  2.65997670849E-04  2.71371180244E-04
  2.76853241730E-04  2.82446048203E-04  2.88151836862E-04  2.93972890098E-04
  2.99911536410E-04  3.05970151335E-04  3.12151158400E-04  3.18457030090E-04
  3.24890288839E-04  3.31453508035E-04  3.38149313054E-04  3.44980382307E-04
  3.51949448312E-04  3.59059298790E-04  3.66312777775E-04  3.73712786755E-04
  3.81262285832E-04  3.88964294908E-04  3.96821894887E-04  4.04838228916E-04
  4.13016503634E-04  4.21359990461E-04  4.29872026902E-04  4.38556017885E-04
  4.47415437123E-04  4.56453828502E-04  4.65674807498E-04  4.75082062626E-04
  4.84679356914E-04  4.94470529407E-04  5.04459496705E-04  5.14650254527E-04
  5.25046879314E-04  5.35653529853E-04  5.46474448946E-04  5.57513965105E-04
  5.68776494284E-04  5.80266541644E-04  5.91988703358E-04  6.03947668446E-04
  6.16148220655E-04  6.28595240367E-04  6.41293706557E-04  6.54248698780E-04
  6.67465399207E-04  6.80949094692E-04  6.94705178895E-04  7.08739154432E-04
  7.23056635081E-04  7.37663348025E-04  7.52565136144E-04  7.67767960351E-04
  7.83277901980E-04  7.99101165213E-04  8.15244079567E-04  8.31713102423E-04
  8.48514821610E-04  8.65655958039E-04  8.83143368394E-04  9.00984047871E-04
  9.19185132981E-04  9.37753904400E-04  9.56697789884E-04  9.76024367240E-04
  9.95741367357E-04  1.01585667730E-03  1.03637834345E-03  1.05731457477E-03
  1.07867374601E-03  1.10046440113E-03  1.12269525668E-03  1.14537520531E-03
  1.16851331929E-03  1.19211885418E-03  1.21620125250E-03  1.24077014755E-03
  1.26583536719E-03  1.29140693786E-03  1.31749508853E-03  1.34411025479E-03
  1.37126308309E-03  1.39896443489E-03  1.42722539113E-03  1.45605725655E-03
  1.48547156429E-03  1.51548008046E-03  1.54609480887E-03  1.57732799581E-03
  1.60919213499E-03  1.64169997248E-03  1.67486451184E-03  1.70869901935E-03
  1.74321702924E-03  1.77843234919E-03  1.81435906579E-03  1.85101155021E-03
  1.88840446393E-03  1.92655276461E-03  1.96547171209E-03  2.00517687446E-03
  2.04568413431E-03  2.08700969510E-03  2.12917008759E-03  2.17218217650E-03
  2.21606316725E-03  2.26083061281E-03  2.30650242076E-03  2.35309686044E-03
  2.40063257023E-03  2.44912856506E-03  2.49860424397E-03  2.54907939790E-03
  2.60057421757E-03  2.65310930160E-03  2.70670566473E-03  2.76138474622E-03
  2.81716841842E-03  2.87407899555E-03  2.93213924261E-03  2.99137238445E-03
  3.05180211514E-03  3.11345260736E-03  3.17634852214E-03  3.24051501868E-03
  3.30597776443E-03  3.37276294537E-03  3.44089727646E-03  3.51040801234E-03
  3.58132295823E-03  3.65367048105E-03  3.72747952079E-03  3.80277960203E-03
  3.87960084582E-03  3.95797398167E-03  4.03793035989E-03  4.11950196410E-03
  4.20272142402E-03  4.28762202854E-03  4.37423773904E-03  4.46260320297E-03
  4.55275376768E-03  4.64472549460E-03  4.73855517364E-03  4.83428033794E-03
  4.93193927883E-03  5.03157106120E-03  5.13321553907E-03  5.23691337161E-03
  5.34270603932E-03  5.45063586068E-03  5.56074600906E-03  5.67308053000E-03
  5.78768435878E-03  5.90460333848E-03  6.02388423824E-03  6.14557477202E-03
  6.26972361765E-03  6.39638043633E-03  6.52559589246E-03  6.65742167396E-03
  6.79191051290E-03  6.92911620660E-03  7.06909363918E-03  7.21189880346E-03
  7.35758882343E-03  7.50622197703E-03  7.65785771950E-03  7.81255670717E-03
  7.97038082169E-03  8.13139319481E-03  8.29565823363E-03  8.46324164635E-03
  8.63421046858E-03  8.80863309012E-03  8.98657928234E-03  9.16812022610E-03
  9.35332854020E-03  9.54227831042E-03  9.73504511920E-03  9.93170607583E-03
  1.01323398473E-02  1.03370266898E-02  1.05458484809E-02  1.07588887519E-02
  1.09762327219E-02  1.11979673313E-02  1.14241812770E-02  1.16549650475E-02
  1.18904109594E-02  1.21306131943E-02  1.23756678361E-02  1.26256729101E-02
  1.28807284217E-02  1.31409363963E-02  1.34064009207E-02  1.36772281842E-02
  1.39535265214E-02  1.42354064553E-02  1.45229807415E-02  1.48163644136E-02
  1.51156748291E-02  1.54210317161E-02  1.57325572213E-02  1.60503759592E-02
  1.63746150616E-02  1.67054042282E-02  1.70428757793E-02  1.73871647080E-02
  1.77384087343E-02  1.80967483607E-02  1.84623269277E-02  1.88352906717E-02
  1.92157887830E-02  1.96039734661E-02  2.00000000000E-02  2.04040268005E-02
  2.08162154838E-02  2.12367309309E-02  2.16657413535E-02  2.21034183615E-02
  2.25499370316E-02  2.30054759771E-02  2.34702174198E-02  2.39443472624E-02
  2.44280551632E-02  2.49215346117E-02  2.54249830064E-02  2.59386017333E-02
  2.64625962467E-02  2.69971761515E-02  2.75425552867E-02  2.80989518113E-02
  2.86665882912E-02  2.92456917887E-02  2.98364939528E-02  3.04392311124E-02
  3.10541443702E-02  3.16814796999E-02  3.23214880439E-02  3.29744254140E-02
  3.36405529940E-02  3.43201372437E-02  3.50134500059E-02  3.57207686150E-02
  3.64423760078E-02  3.71785608369E-02  3.79296175861E-02  3.86958466880E-02
  3.94775546446E-02  4.02750541494E-02  4.10886642129E-02  4.19187102899E-02
  4.27655244099E-02  4.36294453100E-02  4.45108185698E-02  4.54099967506E-02
  4.63273395356E-02  4.72632138741E-02  4.82179941283E-02  4.91920622231E-02
  5.01858077987E-02  5.11996283666E-02  5.22339294685E-02  5.32891248386E-02
  5.43656365692E-02  5.54638952793E-02  5.65843402870E-02  5.77274197854E-02
  5.88935910213E-02  6.00833204789E-02  6.12970840659E-02  6.25353673037E-02
  6.37986655223E-02  6.50874840578E-02  6.64023384547E-02  6.77437546724E-02
  6.91122692953E-02  7.05084297473E-02  7.19327945114E-02  7.33859333524E-02
  7.48684275452E-02  7.63808701073E-02  7.79238660359E-02  7.94980325499E-02
  8.11039993369E-02  8.27424088050E-02  8.44139163399E-02  8.61191905669E-02
  8.78589136184E-02  8.96337814068E-02  9.14445039028E-02  9.32918054198E-02
  9.51764249028E-02  9.70991162247E-02  9.90606484879E-02  1.01061806331E-01
  1.03103390245E-01  1.05186216889E-01  1.07311119422E-01  1.09478947835E-01
  1.11690569286E-01  1.13946868453E-01  1.16248747888E-01  1.18597128372E-01
  1.20992949288E-01  1.23437168998E-01  1.25930765221E-01  1.28474735429E-01
  1.31070097244E-01  1.33717888846E-01  1.36419169386E-01  1.39175019413E-01
  1.41986541303E-01  1.44854859703E-01  1.47781121979E-01  1.50766498673E-01
  1.53812183978E-01  1.56919396206E-01  1.60089378286E-01  1.63323398251E-01
  1.66622749754E-01  1.69988752578E-01  1.73422753169E-01  1.76926125174E-01
  1.80500269989E-01  1.84146617318E-01  1.87866625749E-01  1.91661783335E-01
  1.95533608191E-01  1.99483649096E-01  2.03513486121E-01  2.07624731255E-01
  2.11819029049E-01  2.16098057279E-01  2.20463527613E-01  2.24917186298E-01
  2.29460814856E-01  2.34096230800E-01  2.38825288357E-01  2.43649879214E-01
  2.48571933272E-01  2.53593419417E-01  2.58716346311E-01  2.63942763193E-01
  2.69274760700E-01  2.74714471702E-01  2.80264072155E-01  2.85925781974E-01
  2.91701865918E-01  2.97594634497E-01  3.03606444899E-01  3.09739701927E-01
  3.15996858965E-01  3.22380418961E-01  3.28892935422E-01  3.35537013443E-01
  3.42315310743E-01  3.49230538732E-01  3.56285463592E-01  3.63482907389E-01
  3.70825749195E-01  3.78316926245E-01  3.85959435110E-01  3.93756332895E-01
  4.01710738464E-01  4.09825833684E-01  4.18104864702E-01  4.26551143241E-01
  4.35168047924E-01  4.43959025629E-01  4.52927592864E-01  4.62077337174E-01
  4.71411918581E-01  4.80935071041E-01  4.90650603942E-01  5.00562403627E-01
  5.10674434947E-01  5.20990742850E-01  5.31515453997E-01  5.42252778413E-01
  5.53207011170E-01  5.64382534108E-01  5.75783817585E-01  5.87415422266E-01
  5.99282000948E-01  6.11388300421E-01  6.23739163366E-01  6.36339530293E-01
  6.49194441517E-01  6.62309039174E-01  6.75688569277E-01  6.89338383817E-01
  7.03263942902E-01  7.17470816941E-01  7.31964688874E-01  7.46751356441E-01
  7.61836734508E-01  7.77226857427E-01  7.92927881451E-01  8.08946087201E-01
  8.25287882172E-01  8.41959803300E-01  8.58968519575E-01  8.76320834711E-01
  8.94023689866E-01  9.12084166417E-01  9.30509488796E-01  9.49307027377E-01
  9.68484301427E-01  9.88048982111E-01  1.00800889556E+00  1.02837202601E+00
  1.04914651898E+00  1.07034068455E+00  1.09196300066E+00  1.11402211654E+00
  1.13652685611E+00  1.15948622158E+00  1.18290939700E+00  1.20680575195E+00
  1.23118484529E+00  1.25605642898E+00  1.28143045200E+00  1.30731706428E+00
  1.33372662082E+00  1.36066968579E+00  1.38815703678E+00  1.41619966909E+00
  1.44480880015E+00  1.47399587399E+00  1.50377256584E+00  1.53415078677E+00
  1.56514268846E+00  1.59676066810E+00  1.62901737330E+00  1.66192570717E+00
  1.69549883348E+00  1.72975018193E+00  1.76469345351E+00  1.80034262601E+00
  1.83671195956E+00  1.87381600239E+00  1.91166959660E+00  1.95028788414E+00
  1.98968631284E+00
  </PP_RAB>
</PP_MESH>


<PP_LOCAL>
 -6.93898321295E+00 -6.93898256944E+00 -6.93898189982E+00 -6.93898120288E+00
 -6.93898047750E+00 -6.93897972252E+00 -6.93897893672E+00 -6.93897811885E+00
 -6.93897726762E+00 -6.93897638164E+00 -6.93897545952E+00 -6.93897449976E+00
 -6.93897350084E+00 -6.93897246115E+00 -6.93897137904E+00 -6.93897025277E+00
 -6.93896908054E+00 -6.93896786048E+00 -6.93896659064E+00 -6.93896526898E+00
 -6.93896389339E+00 -6.93896246166E+00 -6.93896097152E+00 -6.93895942057E+00
 -6.93895780633E+00 -6.93895612623E+00 -6.93895437758E+00 -6.93895255757E+00
 -6.93895066330E+00 -6.93894869174E+00 -6.93894663974E+00 -6.93894450400E+00
 -6.93894228113E+00 -6.93893996756E+00 -6.93893755960E+00 -6.93893505339E+00
 -6.93893244492E+00 -6.93892973003E+00 -6.93892690437E+00 -6.93892396343E+00
 -6.93892090251E+00 -6.93891771671E+00 -6.93891440093E+00 -6.93891094988E+00
 -6.93890735805E+00 -6.93890361968E+00 -6.93889972881E+00 -6.93889567920E+00
 -6.93889146440E+00 -6.93888707767E+00 -6.93888251199E+00 -6.93887776007E+00
 -6.93887281433E+00 -6.93886766684E+00 -6.93886230940E+00 -6.93885673342E+00
 -6.93885093002E+00 -6.93884488993E+00 -6.93883860350E+00 -6.93883206067E+00
 -6.93882525100E+00 -6.93881816363E+00 -6.93881078722E+00 -6.93880311001E+00
 -6.93879511974E+00 -6.93878680364E+00 -6.93877814846E+00 -6.93876914036E+00
 -6.93875976499E+00 -6.93875000738E+00 -6.93873985194E+00 -6.93872928250E+00
 -6.93871828218E+00 -6.93870683343E+00 -6.93869491802E+00 -6.93868251693E+00
 -6.93866961039E+00 -6.93865617783E+00 -6.93864219784E+00 -6.93862764815E+00
 -6.93861250557E+00 -6.93859674598E+00 -6.93858034428E+00 -6.93856327437E+00
 -6.93854550904E+00 -6.93852702004E+00 -6.93850777794E+00 -6.93848775212E+00
 -6.93846691073E+00 -6.93844522063E+00 -6.93842264734E+00 -6.93839915497E+00
 -6.93837470621E+00 -6.93834926220E+00 -6.93832278255E+00 -6.93829522522E+00
 -6.93826654648E+00 -6.93823670082E+00 -6.93820564091E+00 -6.93817331752E+00
 -6.93813967942E+00 -6.93810467332E+00 -6.93806824380E+00 -6.93803033319E+00
 -6.93799088153E+00 -6.93794982641E+00 -6.93790710296E+00 -6.93786264368E+00
 -6.93781637837E+00 -6.93776823404E+00 -6.93771813473E+00 -6.93766600149E+00
 -6.93761175220E+00 -6.93755530145E+00 -6.93749656045E+00 -6.93743543683E+00
 -6.93737183459E+00 -6.93730565389E+00 -6.93723679093E+00 -6.93716513778E+00
 -6.93709058222E+00 -6.93701300764E+00 -6.93693229278E+00 -6.93684831160E+00
 -6.93676093309E+00 -6.93667002109E+00 -6.93657543408E+00 -6.93647702499E+00
 -6.93637464100E+00 -6.93626812327E+00 -6.93615730681E+00 -6.93604202018E+00
 -6.93592208527E+00 -6.93579731705E+00 -6.93566752332E+00 -6.93553250449E+00
 -6.93539205321E+00 -6.93524595421E+00 -6.93509398394E+00 -6.93493591028E+00
 -6.93477149227E+00 -6.93460047979E+00 -6.93442261320E+00 -6.93423762305E+00
 -6.93404522976E+00 -6.93384514320E+00 -6.93363706241E+00 -6.93342067519E+00
 -6.93319565777E+00 -6.93296167436E+00 -6.93271837683E+00 -6.93246540427E+00
 -6.93220238259E+00 -6.93192892413E+00 -6.93164462721E+00 -6.93134907571E+00
 -6.93104183866E+00 -6.93072246974E+00 -6.93039050691E+00 -6.93004547191E+00
 -6.92968686982E+00 -6.92931418862E+00 -6.92892689870E+00 -6.92852445240E+00
 -6.92810628362E+00 -6.92767180729E+00 -6.92722041892E+00 -6.92675149422E+00
 -6.92626438859E+00 -6.92575843672E+00 -6.92523295215E+00 -6.92468722692E+00
 -6.92412053109E+00 -6.92353211244E+00 -6.92292119609E+00 -6.92228698419E+00
 -6.92162865559E+00 -6.92094536560E+00 -6.92023624576E+00 -6.91950040365E+00
 -6.91873692271E+00 -6.91794486218E+00 -6.91712325705E+00 -6.91627111804E+00
 -6.91538743172E+00 -6.91447116061E+00 -6.91352124344E+00 -6.91253659543E+00
 -6.91151610867E+00 -6.91045865263E+00 -6.90936307470E+00 -6.90822820094E+00
 -6.90705283680E+00 -6.90583576809E+00 -6.90457576205E+00 -6.90327156848E+00
 -6.90192192106E+00 -6.90052553886E+00 -6.89908112793E+00 -6.89758738304E+00
 -6.89604298965E+00 -6.89444662600E+00 -6.89279696533E+00 -6.89109267839E+00
 -6.88933243592E+00 -6.88751491152E+00 -6.88563878448E+00 -6.88370274293E+00
 -6.88170548702E+00 -6.87964573229E+00 -6.87752221316E+00 -6.87533368655E+00
 -6.87307893550E+00 -6.87075677291E+00 -6.86836604536E+00 -6.86590563677E+00
 -6.86337447219E+00 -6.86077152131E+00 -6.85809580200E+00 -6.85534638347E+00
 -6.85252238926E+00 -6.84962299983E+00 -6.84664745469E+00 -6.84359505397E+00
 -6.84046515943E+00 -6.83725719459E+00 -6.83397064405E+00 -6.83060505173E+00
 -6.82716001796E+00 -6.82363519522E+00 -6.82003028243E+00 -6.81634501741E+00
 -6.81257916761E+00 -6.80873251868E+00 -6.80480486071E+00 -6.80079597200E+00
 -6.79670560004E+00 -6.79253343946E+00 -6.78827910675E+00 -6.78394211148E+00
 -6.77952182371E+00 -6.77501743739E+00 -6.77042792946E+00 -6.76575201437E+00
 -6.76098809382E+00 -6.75613420139E+00 -6.75118794187E+00 -6.74614642507E+00
 -6.74100619389E+00 -6.73576314634E+00 -6.73041245164E+00 -6.72494845983E+00
 -6.71936460520E+00 -6.71365330319E+00 -6.70780584078E+00 -6.70181226046E+00
 -6.69566123782E+00 -6.68933995269E+00 -6.68283395436E+00 -6.67612702078E+00
 -6.66920101228E+00 -6.66203572011E+00 -6.65460871035E+00 -6.64689516373E+00
 -6.63886771212E+00 -6.63049627250E+00 -6.62174787929E+00 -6.61258651624E+00
 -6.60297294907E+00 -6.59286456034E+00 -6.58221518806E+00 -6.57097497001E+00
 -6.55909019566E+00 -6.54650316810E+00 -6.53315207847E+00 -6.51897089575E+00
 -6.50388927503E+00 -6.48783248785E+00 -6.47072137822E+00 -6.45247234885E+00
 -6.43299738187E+00 -6.41220409928E+00 -6.38999586857E+00 -6.36627195924E+00
 -6.34092775680E+00 -6.31385504083E+00 -6.28494233451E+00 -6.25407533308E+00
 -6.22113741951E+00 -6.18601027548E+00 -6.14857459653E+00 -6.10871092003E+00
 -6.06630057501E+00 -6.02122676234E+00 -5.97337577400E+00 -5.92263835915E+00
 -5.86891124403E+00 -5.81209881169E+00 -5.75211494540E+00 -5.68888503780E+00
 -5.62234816476E+00 -5.55245941912E+00 -5.47919239523E+00 -5.40254180905E+00
 -5.32252623223E+00 -5.23919090960E+00 -5.15261062014E+00 -5.06289252928E+00
 -4.97017896695E+00 -4.87465004990E+00 -4.77652604866E+00 -4.67606937967E+00
 -4.57358608054E+00 -4.46942660251E+00 -4.36398572922E+00 -4.25770140499E+00
 -4.15105223132E+00 -4.04455336889E+00 -3.93875056549E+00 -3.83421202373E+00