<UPF version="2.0.1">
  <PP_INFO>
    Generated using "atomic" code by A. Dal Corso  v.6.2 svn rev. 13949:13950
    Author: D.C.
    Generation date: 18Jan2018
    Pseudopotential type: NC
    Element:  K
    Functional: PBE

    Suggested minimum cutoff for wavefunctions:   0. Ry
    Suggested minimum cutoff for charge density:   0. Ry
    The Pseudo was generated with a Scalar-Relativistic Calculation
    L component and cutoff radius for Local Potential:  0   3.5000
    Pseudopotential contains additional information for GIPAW reconstruction.

    Valence configuration: 
    nl pn  l   occ       Rcut    Rcut US       E pseu
    4P  2  1  0.00      3.700      3.700    -0.059149
    4S  1  0  1.00      4.576      4.576    -0.170443
    5S  2  0  0.00     15.300     15.300    -0.006184
    Generation configuration:
    3D  3  2 -1.00      3.700      3.700     0.100000
    4P  2  1  0.00      3.700      3.700    -0.059134
    4S  1  0  1.00      3.500      3.500    -0.170443

    Pseudization used: troullier-martins
<PP_INPUTFILE>
 &amp;input
        title = 'K'
	prefix = 'k'
        zed = 19
        dft = 'PBE'
	rel = 1
        iswitch = 3
        beta = 0.2
        xmin = -8.0, dx = 0.01
        nld = 3, rlderiv = 3.9, eminld  = -5.0, emaxld  = 5.0, deld = 0.005
 /
10
1S  1  0  2.0  1
2S  2  0  2.0  1
2P  2  1  6.0  1
3S  3  0  2.0  1
3P  3  1  6.0  1
3D  3  2  0.0  1
4S  4  0  1.0  1
4P  4  1  0.0  1
5S  5  0  0.0  1
5P  5  1  0.0  1
 &amp;inputp
	pseudotype = 1
   	lloc = 0
   	tm = .true.
        nlcc = .true.
        rcore = 2
        file_core = 'k.core'
   	file_pseudopw = 'K.pbe-tm-gipaw-dc.UPF'
        author = 'D.C.'
        lgipaw_reconstruction = .true.
        !upf_v1_format = .true.
 /
3
3D  3  2 -1.0  0.10  3.70  3.70
4P  2  1  0.0  0.00  3.70  3.70
4S  1  0  1.0  0.00  3.50  3.50
 &amp;test
   ecutmin = 10
   ecutmax = 60
   decut   = 10
 /
5
3D  3  2 -1.0  0.10  3.70  3.70
4P  2  1  0.0  0.00  3.70  3.70
5P  3  1 -1.0  0.50  3.70  3.70
4S  1  0  1.0  0.00  3.50  3.50
5S  2  0  0.0  0.00  3.50  3.50

</PP_INPUTFILE>
  </PP_INFO>
  <!--                               -->
  <!-- END OF HUMAN READABLE SECTION -->
  <!--                               -->
  <PP_HEADER generated='Generated using "atomic" code by A. Dal Corso  v.6.2 svn rev. 13949:13950'
             author="D.C."
             date="18Jan2018"
             comment=""
             element=" K"
             pseudo_type="NC"
             relativistic="scalar"
             is_ultrasoft="F"
             is_paw="F"
             is_coulomb="F"
             has_so="F"
             has_wfc="F"
             has_gipaw="T"
             paw_as_gipaw="F"
             core_correction="T"
             functional="PBE"
             z_valence="1.000000000000000E+000"
             total_psenergy="-3.999121221941097E+000"
             wfc_cutoff="0.000000000000000E+000"
             rho_cutoff="0.000000000000000E+000"
             l_max="2"
             l_max_rho="4"
             l_local="0"
             mesh_size="1555"
             number_of_wfc="5"
             number_of_proj="2"/>
  <PP_MESH dx="1.000000000000000E-002" mesh="1555" xmin="-8.000000000000000E+000" rmax="1.000000000000000E+002"
zmesh="1.900000000000000E+001">
    <PP_R type="real" size="1555" columns="4">
 1.765592778434273E-005  1.783337280860138E-005  1.801260118500207E-005  1.819363083653184E-005 
 1.837647986630666E-005  1.856116655938188E-005  1.874770938458074E-005  1.893612699634121E-005 
 1.912643823658146E-005  1.931866213658413E-005  1.951281791889938E-005  1.970892499926728E-005 
 1.990700298855925E-005  2.010707169473930E-005  2.030915112484477E-005  2.051326148698709E-005 
 2.071942319237254E-005  2.092765685734347E-005  2.113798330543990E-005  2.135042356948194E-005 
 2.156499889367299E-005  2.178173073572430E-005  2.200064076900068E-005  2.222175088468791E-005 
 2.244508319398178E-005  2.267066003029934E-005  2.289850395151222E-005  2.312863774220239E-005 
 2.336108441594074E-005  2.359586721758829E-005  2.383300962562089E-005  2.407253535447696E-005 
 2.431446835692902E-005  2.455883282647886E-005  2.480565319977713E-005  2.505495415906681E-005 
 2.530676063465162E-005  2.556109780738891E-005  2.581799111120792E-005  2.607746623565312E-005 
 2.633954912845320E-005  2.660426599811580E-005  2.687164331654851E-005  2.714170782170599E-005 
 2.741448652026382E-005  2.769000669031914E-005  2.796829588411857E-005  2.824938193081341E-005 
 2.853329293924258E-005  2.882005730074348E-005  2.910970369199124E-005  2.940226107786637E-005 
 2.969775871435125E-005  2.999622615145581E-005  3.029769323617243E-005  3.060219011546082E-005 
 3.090974723926270E-005  3.122039536354669E-005  3.153416555338411E-005  3.185108918605543E-005 
 3.217119795418802E-005  3.249452386892547E-005  3.282109926312866E-005  3.315095679460916E-005 
 3.348412944939501E-005  3.382065054502936E-005  3.416055373390216E-005  3.450387300661557E-005 
 3.485064269538297E-005  3.520089747746223E-005  3.555467237862339E-005  3.591200277665140E-005 
 3.627292440488384E-005  3.663747335578435E-005  3.700568608455173E-005  3.737759941276574E-005 
 3.775325053206913E-005  3.813267700788687E-005  3.851591678318278E-005  3.890300818225367E-005 
 3.929398991456206E-005  3.968890107860706E-005  4.008778116583407E-005  4.049067006458426E-005 
 4.089760806408324E-005  4.130863585847009E-005  4.172379455086680E-005  4.214312565748850E-005 
 4.256667111179534E-005  4.299447326868570E-005  4.342657490873182E-005  4.386301924245771E-005 
 4.430384991466047E-005  4.474911100877470E-005  4.519884705128091E-005  4.565310301615803E-005 
 4.611192432938114E-005  4.657535687346393E-005  4.704344699204703E-005  4.751624149453229E-005 
 4.799378766076401E-005  4.847613324575676E-005  4.896332648447100E-005  4.945541609663664E-005 
 4.995245129162488E-005  5.045448177336946E-005  5.096155774533698E-005  5.147372991554709E-005 
 5.199104950164365E-005  5.251356823601642E-005  5.304133837097423E-005  5.357441268397046E-005 
 5.411284448288052E-005  5.465668761133306E-005  5.520599645409418E-005  5.576082594250580E-005 
 5.632123155997918E-005  5.688726934754308E-005  5.745899590944794E-005  5.803646841882641E-005 
 5.861974462341070E-005  5.920888285130723E-005  5.980394201682978E-005  6.040498162639086E-005 
 6.101206178445218E-005  6.162524319953550E-005  6.224458719029331E-005  6.287015569164080E-005 
 6.350201126094949E-005  6.414021708430276E-005  6.478483698281478E-005  6.543593541901272E-005 
 6.609357750328260E-005  6.675782900038099E-005  6.742875633601112E-005  6.810642660346569E-005 
 6.879090757033620E-005  6.948226768528961E-005  7.018057608491365E-005  7.088590260063025E-005 
 7.159831776567863E-005  7.231789282216904E-005  7.304469972820679E-005  7.377881116508813E-005 
 7.452030054456853E-005  7.526924201620391E-005  7.602571047476544E-005  7.678978156772940E-005 
 7.756153170284190E-005  7.834103805575945E-005  7.912837857776697E-005  7.992363200357282E-005 
 8.072687785918226E-005  8.153819646985034E-005  8.235766896811403E-005  8.318537730190616E-005 
 8.402140424274994E-005  8.486583339403597E-005  8.571874919938319E-005  8.658023695108287E-005 
 8.745038279862811E-005  8.832927375732882E-005  8.921699771701318E-005  9.011364345081700E-005 
 9.101930062406090E-005  9.193405980321683E-005  9.285801246496503E-005  9.379125100534166E-005 
 9.473386874897848E-005  9.568595995843534E-005  9.664761984362669E-005  9.761894457134227E-005 
 9.860003127486438E-005  9.959097806368103E-005  1.005918840332967E-004  1.016028492751426E-004 
 1.026239748865853E-004  1.036553629810369E-004  1.046971166981665E-004  1.057493402142137E-004 
 1.068121387524071E-004  1.078856185934862E-004  1.089698870863295E-004  1.100650526586900E-004 
 1.111712248280376E-004  1.122885142125110E-004  1.134170325419797E-004  1.145568926692171E-004 
 1.157082085811859E-004  1.168710954104366E-004  1.180456694466212E-004  1.192320481481222E-004 
 1.204303501537984E-004  1.216406952948489E-004  1.228632046067965E-004  1.240980003415912E-004 
 1.253452059798353E-004  1.266049462431321E-004  1.278773471065578E-004  1.291625358112588E-004 
 1.304606408771768E-004  1.317717921159000E-004  1.330961206436450E-004  1.344337588943683E-004 
 1.357848406330095E-004  1.371495009688683E-004  1.385278763691158E-004  1.399201046724404E-004 
 1.413263251028327E-004  1.427466782835076E-004  1.441813062509668E-004  1.456303524692025E-004 
 1.470939618440444E-004  1.485722807376493E-004  1.500654569831386E-004  1.515736398993812E-004 
 1.530969803059255E-004  1.546356305380816E-004  1.561897444621549E-004  1.577594774908331E-004 
 1.593449865987271E-004  1.609464303380688E-004  1.625639688545669E-004  1.641977639034208E-004 
 1.658479788654969E-004  1.675147787636667E-004  1.691983302793089E-004  1.708988017689782E-004 
 1.726163632812407E-004  1.743511865736786E-004  1.761034451300671E-004  1.778733141777219E-004 
 1.796609707050227E-004  1.814665934791119E-004  1.832903630637717E-004  1.851324618374804E-004 
 1.869930740116504E-004  1.888723856490499E-004  1.907705846824082E-004  1.926878609332110E-004 
 1.946244061306806E-004  1.965804139309509E-004  1.985560799364319E-004  2.005516017153704E-004 
 2.025671788216073E-004  2.046030128145332E-004  2.066593072792434E-004  2.087362678468983E-004 
 2.108341022152853E-004  2.129530201695894E-004  2.150932336033719E-004  2.172549565397598E-004 
 2.194384051528480E-004  2.216437977893176E-004  2.238713549902698E-004  2.261212995132812E-004 
 2.283938563546789E-004  2.306892527720409E-004  2.330077183069216E-004  2.353494848078069E-004 
 2.377147864532982E-004  2.401038597755312E-004  2.425169436838290E-004  2.449542794885933E-004 
 2.474161109254358E-004  2.499026841795515E-004  2.524142479103379E-004  2.549510532762614E-004 
 2.575133539599724E-004  2.601014061936746E-004  2.627154687847483E-004  2.653558031416305E-004 
 2.680226732999576E-004  2.707163459489676E-004  2.734370904581701E-004  2.761851789042834E-004 
 2.789608860984422E-004  2.817644896136791E-004  2.845962698126821E-004  2.874565098758305E-004 
 2.903454958295146E-004  2.932635165747367E-004  2.962108639160034E-004  2.991878325905050E-004 
 3.021947202975896E-004  3.052318277285338E-004  3.082994585966114E-004  3.113979196674662E-004 
 3.145275207897865E-004  3.176885749262931E-004  3.208813981850336E-004  3.241063098509946E-004 
 3.273636324180302E-004  3.306536916211114E-004  3.339768164689005E-004  3.373333392766517E-004 
 3.407235956994424E-004  3.441479247657405E-004  3.476066689113058E-004  3.511001740134355E-004 
 3.546287894255509E-004  3.581928680121339E-004  3.617927661840130E-004  3.654288439340060E-004 
 3.691014648729171E-004  3.728109962659013E-004  3.765578090691887E-004  3.803422779671822E-004 
 3.841647814099254E-004  3.880257016509480E-004  3.919254247854915E-004  3.958643407891191E-004 
 3.998428435567140E-004  4.038613309418679E-004  4.079202047966684E-004  4.120198710118828E-004 
 4.161607395575495E-004  4.203432245239738E-004  4.245677441631376E-004  4.288347209305254E-004 
 4.331445815273700E-004  4.374977569433221E-004  4.418946824995515E-004  4.463357978922773E-004 
 4.508215472367400E-004  4.553523791116123E-004  4.599287466038574E-004  4.645511073540380E-004 
 4.692199236020817E-004  4.739356622335031E-004  4.786987948260960E-004  4.835097976970880E-004 
 4.883691519507760E-004  4.932773435266346E-004  4.982348632479117E-004  5.032422068707108E-004 
 5.082998751335668E-004  5.134083738075212E-004  5.185682137466977E-004  5.237799109393910E-004 
 5.290439865596624E-004  5.343609670194613E-004  5.397313840212643E-004  5.451557746112472E-004 
 5.506346812329892E-004  5.561686517817187E-004  5.617582396591014E-004  5.674040038285838E-004 
 5.731065088712869E-004  5.788663250424674E-004  5.846840283285424E-004  5.905602005046887E-004 
 5.964954291930204E-004  6.024903079213531E-004  6.085454361825545E-004  6.146614194944975E-004 
 6.208388694606091E-004  6.270784038310340E-004  6.333806465644092E-004  6.397462278902597E-004 
 6.461757843720230E-004  6.526699589707051E-004  6.592294011091782E-004  6.658547667371213E-004 
 6.725467183966196E-004  6.793059252884143E-004  6.861330633388282E-004  6.930288152673553E-004 
 6.999938706549351E-004  7.070289260129106E-004  7.141346848526807E-004  7.213118577560498E-004 
 7.285611624462902E-004  7.358833238599110E-004  7.432790742191559E-004  7.507491531052240E-004 
 7.582943075322289E-004  7.659152920219013E-004  7.736128686790413E-004  7.813878072677280E-004 
 7.892408852883009E-004  7.971728880551048E-004  8.051846087750273E-004  8.132768486268166E-004 
 8.214504168412016E-004  8.297061307818151E-004  8.380448160269307E-004  8.464673064520228E-004 
 8.549744443131510E-004  8.635670803311925E-004  8.722460737769081E-004  8.810122925568753E-004 
 8.898666133002779E-004  8.988099214465680E-004  9.078431113340139E-004  9.169670862891324E-004 
 9.261827587170206E-004  9.354910501926031E-004  9.448928915527825E-004  9.543892229895303E-004 
 9.639809941439042E-004  9.736691642010127E-004  9.834547019859357E-004  9.933385860606049E-004 
 1.003321804821665E-003  1.013405356599312E-003  1.023590249757126E-003  1.033877502792910E-003 
 1.044268144440541E-003  1.054763213772843E-003  1.065363760305494E-003  1.076070844101982E-003 
 1.086885535879609E-003  1.097808917116564E-003  1.108842080160075E-003  1.119986128335641E-003 
 1.131242176057364E-003  1.142611348939398E-003  1.154094783908506E-003  1.165693629317754E-003 
 1.177409045061347E-003  1.189242202690624E-003  1.201194285531209E-003  1.213266488801346E-003 
 1.225460019731422E-003  1.237776097684690E-003  1.250215954279210E-003  1.262780833511010E-003 
 1.275471991878480E-003  1.288290698508035E-003  1.301238235281020E-003  1.314315896961903E-003 
 1.327524991327748E-003  1.340866839299001E-003  1.354342775071576E-003  1.367954146250282E-003 
 1.381702313983577E-003  1.395588653099694E-003  1.409614552244114E-003  1.423781414018442E-003 
 1.438090655120661E-003  1.452543706486805E-003  1.467142013434053E-003  1.481887035805268E-003 
 1.496780248114975E-003  1.511823139696812E-003  1.527017214852476E-003  1.542363993002144E-003 
 1.557865008836422E-003  1.573521812469806E-003  1.589335969595711E-003  1.605309061643025E-003 
 1.621442685934268E-003  1.637738455845309E-003  1.654198000966722E-003  1.670822967266734E-003 
 1.687615017255831E-003  1.704575830153003E-003  1.721707102053675E-003  1.739010546099312E-003 
 1.756487892648742E-003  1.774140889451180E-003  1.791971301821018E-003  1.809980912814353E-003 
 1.828171523407292E-003  1.846544952676055E-003  1.865103037978876E-003  1.883847635139753E-003 
 1.902780618634022E-003  1.921903881775811E-003  1.941219336907369E-003  1.960728915590306E-003 
 1.980434568798747E-003  2.000338267114439E-003  2.020442000923793E-003  2.040747780616948E-003 
 2.061257636788793E-003  2.081973620442039E-003  2.102897803192312E-003  2.124032277475324E-003 
 2.145379156756117E-003  2.166940575740408E-003  2.188718690588062E-003  2.210715679128713E-003 
 2.232933741079547E-003  2.255375098265274E-003  2.278041994840311E-003  2.300936697513207E-003 
 2.324061495773308E-003  2.347418702119711E-003  2.371010652292517E-003  2.394839705506398E-003 
 2.418908244686537E-003  2.443218676706908E-003  2.467773432630974E-003  2.492574967954786E-003 
 2.517625762852546E-003  2.542928322424619E-003  2.568485176948052E-003  2.594298882129588E-003 
 2.620372019361260E-003  2.646707195978519E-003  2.673307045520975E-003  2.700174227995744E-003 
 2.727311430143465E-003  2.754721365706968E-003  2.782406775702652E-003  2.810370428694585E-003 
 2.838615121071370E-003  2.867143677325782E-003  2.895958950337224E-003  2.925063821657004E-003 
 2.954461201796512E-003  2.984154030518258E-003  3.014145277129860E-003  3.044437940780973E-003 
 3.075035050763202E-003  3.105939666813044E-003  3.137154879417860E-003  3.168683810124925E-003 
 3.200529611853577E-003  3.232695469210533E-003  3.265184598808331E-003  3.298000249587010E-003 
 3.331145703138986E-003  3.364624274037240E-003  3.398439310166762E-003  3.432594193059345E-003 
 3.467092338231736E-003  3.501937195527203E-003  3.537132249460514E-003  3.572681019566393E-003 
 3.608587060751471E-003  3.644853963649789E-003  3.681485354981861E-003  3.718484897917349E-003 
 3.755856292441373E-003  3.793603275724532E-003  3.831729622496610E-003  3.870239145424056E-003 
 3.909135695491259E-003  3.948423162385630E-003  3.988105474886604E-003  4.028186601258499E-003 
 4.068670549647357E-003  4.109561368481745E-003  4.150863146877628E-003  4.192580015047263E-003 
 4.234716144712235E-003  4.277275749520616E-003  4.320263085468358E-003  4.363682451324877E-003 
 4.407538189062947E-003  4.451834684292881E-003  4.496576366701118E-003  4.541767710493184E-003 
 4.587413234841123E-003  4.633517504335399E-003  4.680085129441386E-003  4.727120766960402E-003 
 4.774629120495397E-003  4.822614940921309E-003  4.871083026860173E-003  4.920038225160972E-003 
 4.969485431384332E-003  5.019429590292088E-003  5.069875696341738E-003  5.120828794185935E-003 
 5.172293979176922E-003  5.224276397876090E-003  5.276781248568618E-003  5.329813781783337E-003 
 5.383379300817760E-003  5.437483162268434E-003  5.492130776566581E-003  5.547327608519175E-003 
 5.603079177855410E-003  5.659391059778684E-003  5.716268885524106E-003  5.773718342921653E-003 
 5.831745176964940E-003  5.890355190385733E-003  5.949554244234205E-003  6.009348258465079E-003 
 6.069743212529606E-003  6.130745145973527E-003  6.192360159041013E-003  6.254594413284719E-003 
 6.317454132181933E-003  6.380945601756928E-003  6.445075171209576E-003  6.509849253550254E-003 
 6.575274326241180E-003  6.641356931844143E-003  6.708103678674779E-003  6.775521241463381E-003 
 6.843616362022416E-003  6.912395849920686E-003  6.981866583164304E-003  7.052035508884473E-003 
 7.122909644032248E-003  7.194496076080201E-003  7.266801963731204E-003  7.339834537634262E-003 
 7.413601101107632E-003  7.488109030869133E-003  7.563365777773841E-003  7.639378867559145E-003 
 7.716155901597376E-003  7.793704557655917E-003  7.872032590665008E-003  7.951147833493205E-003 
 8.031058197730732E-003  8.111771674480600E-003  8.193296335157757E-003  8.275640332296193E-003 
 8.358811900364247E-003  8.442819356588039E-003  8.527671101783195E-003  8.613375621194954E-003 
 8.699941485346661E-003  8.787377350896878E-003  8.875691961505025E-003  8.964894148705764E-003 
 9.054992832792135E-003  9.145997023707639E-003  9.237915821947202E-003  9.330758419467256E-003 
 9.424534100604910E-003  9.519252243006426E-003  9.614922318564980E-003  9.711553894367861E-003 
 9.809156633653159E-003  9.907740296776147E-003  1.000731474218529E-002  1.010788992740812E-002 
 1.020947591004694E-002  1.031208284878470E-002  1.041572100440077E-002  1.052040074079708E-002 
 1.062613252603450E-002  1.073292693337966E-002  1.084079464236229E-002  1.094974643984318E-002 
 1.105979322109289E-002  1.117094599088122E-002  1.128321586457779E-002  1.139661406926353E-002 
 1.151115194485341E-002  1.162684094523043E-002  1.174369263939104E-002  1.186171871260203E-002 
 1.198093096756910E-002  1.210134132561705E-002  1.222296182788204E-002  1.234580463651566E-002 
 1.246988203590115E-002  1.259520643388182E-002  1.272179036300192E-002  1.284964648175984E-002 
 1.297878757587403E-002  1.310922655956149E-002  1.324097647682929E-002  1.337405050277896E-002 
 1.350846194492400E-002  1.364422424452061E-002  1.378135097791190E-002  1.391985585788547E-002 
 1.405975273504475E-002  1.420105559919405E-002  1.434377858073751E-002  1.448793595209223E-002 
 1.463354212911548E-002  1.478061167254631E-002  1.492915928946160E-002  1.507919983474685E-002 
 1.523074831258161E-002  1.538381987793998E-002  1.553842983810601E-002  1.569459365420460E-002 
 1.585232694274747E-002  1.601164547719496E-002  1.617256518953323E-002  1.633510217186763E-002 
 1.649927267803186E-002  1.666509312521334E-002  1.683258009559495E-002  1.700175033801331E-002 
 1.717262076963365E-002  1.734520847764154E-002  1.751953072095156E-002  1.769560493193334E-002 
 1.787344871815469E-002  1.805307986414245E-002  1.823451633316093E-002  1.841777626900818E-002 
 1.860287799783053E-002  1.878984002995512E-002  1.897868106174097E-002  1.916941997744860E-002 
 1.936207585112855E-002  1.955666794852872E-002  1.975321572902104E-002  1.995173884754731E-002 
 2.015225715658485E-002  2.035479070813164E-002  2.055935975571165E-002  2.076598475640007E-002 
 2.097468637286917E-002  2.118548547545452E-002  2.139840314424207E-002  2.161346067117608E-002 
 2.183067956218850E-002  2.205008153934942E-002  2.227168854303942E-002  2.249552273414352E-002 
 2.272160649626736E-002  2.294996243797556E-002  2.318061339505259E-002  2.341358243278639E-002 
 2.364889284827483E-002  2.388656817275557E-002  2.412663217395913E-002  2.436910885848570E-002 
 2.461402247420575E-002  2.486139751268499E-002  2.511125871163338E-002  2.536363105737909E-002 
 2.561853978736693E-002  2.587601039268237E-002  2.613606862060050E-002  2.639874047716083E-002 
 2.666405222976788E-002  2.693203040981803E-002  2.720270181535259E-002  2.747609351373771E-002 
 2.775223284437099E-002  2.803114742141565E-002  2.831286513656181E-002  2.859741416181580E-002 
 2.888482295231719E-002  2.917512024918458E-002  2.946833508238958E-002  2.976449677365984E-002 
 3.006363493941132E-002  3.036577949370983E-002  3.067096065126261E-002  3.097920893043974E-002 
 3.129055515632603E-002  3.160503046380348E-002  3.192266630066492E-002  3.224349443075873E-002 
 3.256754693716533E-002  3.289485622540531E-002  3.322545502668031E-002  3.355937640114596E-002 
 3.389665374121798E-002  3.423732077491141E-002  3.458141156921352E-002  3.492896053349049E-002 
 3.528000242292841E-002  3.563457234200867E-002  3.599270574801874E-002  3.635443845459761E-002 
 3.671980663531745E-002  3.708884682730072E-002  3.746159593487420E-002  3.783809123325927E-002 
 3.821837037229951E-002  3.860247138022577E-002  3.899043266745884E-002  3.938229303045080E-002 
 3.977809165556449E-002  4.017786812299229E-002  4.058166241071402E-002  4.098951489849499E-002 
 4.140146637192386E-002  4.181755802649129E-002  4.223783147170940E-002  4.266232873527300E-002 
 4.309109226726220E-002  4.352416494438751E-002  4.396159007427749E-002  4.440341139980967E-002 
 4.484967310348480E-002  4.530041981184517E-002  4.575569659993716E-002  4.621554899581902E-002 
 4.668002298511355E-002  4.714916501560678E-002  4.762302200189263E-002  4.810164133006465E-002 
 4.858507086245451E-002  4.907335894241836E-002  4.956655439917100E-002  5.006470655266917E-002 
 5.056786521854333E-002  5.107608071307936E-002  5.158940385825030E-002  5.210788598679833E-002 
 5.263157894736842E-002  5.316053510969305E-002  5.369480736982923E-002  5.423444915544823E-002 
 5.477951443117837E-002  5.533005770400130E-002  5.588613402870316E-002  5.644779901337983E-002 
 5.701510882499782E-002  5.758812019501106E-002  5.816689042503407E-002  5.875147739257214E-002 
 5.934193955680931E-002  5.993833596445382E-002  6.054072625564358E-002  6.114917066990966E-002 
 6.176373005220055E-002  6.238446585896660E-002  6.301144016430578E-002  6.364471566617109E-002 
 6.428435569264047E-002  6.493042420824970E-002  6.558298582038850E-002  6.624210578576202E-002 
 6.690785001691606E-002  6.758028508882849E-002  6.825947824556693E-002  6.894549740701299E-002 
 6.963841117565453E-002  7.033828884344596E-002  7.104520039873706E-002  7.175921653327255E-002 
 7.248040864926092E-002  7.320884886651476E-002  7.394461002966282E-002  7.468776571543456E-002 
 7.543839024001786E-002  7.619655866649083E-002  7.696234681232766E-002  7.773583125698123E-002 
 7.851708934954056E-002  7.930619921646598E-002  8.010323976940177E-002  8.090829071306742E-002 
 8.172143255322817E-002  8.254274660474566E-002  8.337231499970964E-002  8.421022069565059E-002 
 8.505654748383654E-002  8.591137999765154E-002  8.677480372105938E-002  8.764690499715189E-002 
 8.852777103678346E-002  8.941748992729208E-002  9.031615064130842E-002  9.122384304565244E-002 
 9.214065791032115E-002  9.306668691756503E-002  9.400202267105649E-002  9.494675870515035E-002 
 9.590098949423727E-002  9.686481046219138E-002  9.783831799191284E-002  9.882160943496550E-002 
 9.981478312131328E-002  1.008179383691525E-001  1.018311754948438E-001  1.028545958229442E-001 
 1.038883016963393E-001  1.049323964864780E-001  1.059869846037094E-001  1.070521715077238E-001 
 1.081280637180994E-001  1.092147688249539E-001  1.103123954997034E-001  1.114210535059302E-001 
 1.125408537103588E-001  1.136719080939429E-001  1.148143297630631E-001  1.159682329608389E-001 
 1.171337330785510E-001  1.183109466671828E-001  1.194999914490740E-001  1.207009863296938E-001 
 1.219140514095311E-001  1.231393079961048E-001  1.243768786160944E-001  1.256268870275936E-001 
 1.268894582324848E-001  1.281647184889408E-001  1.294527953240500E-001  1.307538175465693E-001 
 1.320679152598051E-001  1.333952198746239E-001  1.347358641225932E-001  1.360899820692552E-001 
 1.374577091275326E-001  1.388391820712713E-001  1.402345390489168E-001  1.416439195973296E-001 
 1.430674646557392E-001  1.445053165798377E-001  1.459576191560156E-001  1.474245176157409E-001 
 1.489061586500822E-001  1.504026904243772E-001  1.519142625930505E-001  1.534410263145788E-001 
 1.549831342666065E-001  1.565407406612139E-001  1.581140012603385E-001  1.597030733913513E-001 
 1.613081159627897E-001  1.629292894802481E-001  1.645667560624293E-001  1.662206794573563E-001 
 1.678912250587466E-001  1.695785599225526E-001  1.712828527836668E-001  1.730042740727956E-001 
 1.747429959335027E-001  1.764991922394225E-001  1.782730386116493E-001  1.800647124362987E-001 
 1.818743928822461E-001  1.837022609190443E-001  1.855484993350201E-001  1.874132927555536E-001 
 1.892968276615410E-001  1.911992924080428E-001  1.931208772431182E-001  1.950617743268527E-001 
 1.970221777505718E-001  1.990022835562516E-001  2.010022897561229E-001  2.030223963524723E-001 
 2.050628053576427E-001  2.071237208142356E-001  2.092053488155132E-001  2.113078975260107E-001 
 2.134315772023514E-001  2.155766002142724E-001  2.177431810658627E-001  2.199315364170129E-001 
 2.221418851050816E-001  2.243744481667801E-001  2.266294488602742E-001  2.289071126875128E-001 
 2.312076674167768E-001  2.335313431054561E-001  2.358783721230560E-001  2.382489891744343E-001 
 2.406434313232714E-001  2.430619380157778E-001  2.455047511046384E-001  2.479721148731971E-001 
 2.504642760598872E-001  2.529814838829042E-001  2.555239900651281E-001  2.580920488592959E-001 
 2.606859170734270E-001  2.633058540965045E-001  2.659521219244143E-001  2.686249851861437E-001 
 2.713247111702465E-001  2.740515698515711E-001  2.768058339182579E-001  2.795877787990088E-001 
 2.823976826906302E-001  2.852358265858528E-001  2.881024943014319E-001  2.909979725065268E-001 
 2.939225507513714E-001  2.968765214962275E-001  2.998601801406312E-001  3.028738250529332E-001 
 3.059177576001362E-001  3.089922821780315E-001  3.120977062416391E-001  3.152343403359536E-001 
 3.184024981269974E-001  3.216024964331902E-001  3.248346552570292E-001  3.280992978170904E-001 
 3.313967505803503E-001  3.347273432948331E-001  3.380914090225858E-001  3.414892841729851E-001 
 3.449213085363765E-001  3.483878253180569E-001  3.518891811725933E-001  3.554257262384888E-001 
 3.589978141731973E-001  3.626058021884890E-001  3.662500510861720E-001  3.699309252941737E-001 
 3.736487929029810E-001  3.774040257024536E-001  3.811969992190008E-001  3.850280927531352E-001 
 3.888976894174027E-001  3.928061761746944E-001  3.967539438769431E-001  4.007413873042089E-001 
 4.047689052041581E-001  4.088369003319356E-001  4.129457794904449E-001  4.170959535710258E-001 
 4.212878375945449E-001  4.255218507528978E-001  4.297984164509288E-001  4.341179623487714E-001 
 4.384809204046158E-001  4.428877269179019E-001  4.473388225729541E-001  4.518346524830472E-001 
 4.563756662349188E-001  4.609623179337281E-001  4.655950662484674E-001  4.702743744578286E-001 
 4.750007104965332E-001  4.797745470021218E-001  4.845963613622241E-001  4.894666357622942E-001 
 4.943858572338307E-001  4.993545177030803E-001  5.043731140402303E-001  5.094421481090967E-001 
 5.145621268173105E-001  5.197335621670101E-001  5.249569713060382E-001  5.302328765796627E-001 
 5.355618055828073E-001  5.409442912128131E-001  5.463808717227285E-001  5.518720907751353E-001 
 5.574184974965144E-001  5.630206465321612E-001  5.686790981016456E-001  5.743944180548410E-001 
 5.801671779285055E-001  5.859979550034372E-001  5.918873323622024E-001  5.978358989474449E-001 
 6.038442496207804E-001  6.099129852222843E-001  6.160427126305719E-001  6.222340448234931E-001 
 6.284876009394268E-001  6.348040063391958E-001  6.411838926686039E-001  6.476278979216005E-001 
 6.541366665040810E-001  6.607108492983276E-001  6.673511037280994E-001  6.740580938243707E-001 
 6.808324902917412E-001  6.876749705755033E-001  6.945862189293873E-001  7.015669264839880E-001 
 7.086177913158782E-001  7.157395185174168E-001  7.229328202672599E-001  7.301984159015745E-001 
 7.375370319859801E-001  7.449494023882004E-001  7.524362683514528E-001  7.599983785685727E-001 
 7.676364892568834E-001  7.753513642338191E-001  7.831437749933079E-001  7.910145007829166E-001 
 7.989643286817846E-001  8.069940536793264E-001  8.151044787547336E-001  8.232964149572721E-001 
 8.315706814873892E-001  8.399281057786327E-001  8.483695235803966E-001  8.568957790414969E-001 
 8.655077247945823E-001  8.742062220414056E-001  8.829921406389410E-001  8.918663591863695E-001 
 9.008297651129409E-001  9.098832547667175E-001  9.190277335042094E-001  9.282641157809126E-001 
 9.375933252427480E-001  9.470162948184382E-001  9.565339668127930E-001  9.661472930009435E-001 
 9.758572347235194E-001  9.856647629827848E-001  9.955708585397385E-001  1.005576512012193E+000 
 1.015682723973830E+000  1.025890505054270E+000  1.036200876040127E+000  1.046614867977091E+000 