<PP_INFO>
Generated using "atomic" code by A. Dal Corso  (espresso distribution)     
Author: anonymous   Generation date: 10Jul2007                             
N                                                                          
    0        The Pseudo was generated with a Non-Relativistic Calculation
    1 1.5000000E+00    L component and cutoff radius for Local Potential
nl pn  l   occ               Rcut            Rcut US             E pseu
2S  1  0  2.00      1.50000000000      1.50000000000     -1.36396506588
2P  2  1  3.00      1.50000000000      1.50000000000     -0.52145839768
</PP_INFO>


<PP_HEADER>
   0                   Version Number
   N                   Element
   NC                  Norm - Conserving pseudopotential
    F                  Nonlinear Core Correction
 SLA  PW   PBX  PBC    PBE  Exchange-Correlation functional
    5.00000000000      Z valence
  -19.28131819862      Total energy
      0.000      0.000 Suggested cutoff for wfc and rho
    1                  Max angular momentum component
 1085                  Number of points in mesh
    2    1             Number of Wavefunctions, Number of Projectors
 Wavefunctions         nl  l   occ
                       2S  0  2.00
                       2P  1  3.00
</PP_HEADER>


<PP_MESH>
  <PP_R>
  1.30268852222E-04  1.31907432667E-04  1.33566623917E-04  1.35246685223E-04
  1.36947879099E-04  1.38670471360E-04  1.40414731164E-04  1.42180931056E-04
  1.43969347007E-04  1.45780258462E-04  1.47613948378E-04  1.49470703275E-04
  1.51350813273E-04  1.53254572143E-04  1.55182277352E-04  1.57134230108E-04
  1.59110735406E-04  1.61112102081E-04  1.63138642850E-04  1.65190674363E-04
  1.67268517256E-04  1.69372496194E-04  1.71502939930E-04  1.73660181349E-04
  1.75844557525E-04  1.78056409770E-04  1.80296083692E-04  1.82563929244E-04
  1.84860300781E-04  1.87185557116E-04  1.89540061575E-04  1.91924182055E-04
  1.94338291078E-04  1.96782765855E-04  1.99257988339E-04  2.01764345290E-04
  2.04302228330E-04  2.06872034008E-04  2.09474163863E-04  2.12109024482E-04
  2.14777027568E-04  2.17478590002E-04  2.20214133907E-04  2.22984086719E-04
  2.25788881248E-04  2.28628955749E-04  2.31504753990E-04  2.34416725319E-04
  2.37365324739E-04  2.40351012974E-04  2.43374256543E-04  2.46435527835E-04
  2.49535305180E-04  2.52674072924E-04  2.55852321506E-04  2.59070547534E-04
  2.62329253861E-04  2.65628949669E-04  2.68970150540E-04  2.72353378544E-04
  2.75779162318E-04  2.79248037147E-04  2.82760545050E-04  2.86317234864E-04
  2.89918662328E-04  2.93565390173E-04  2.97257988207E-04  3.00997033407E-04
  3.04783110005E-04  3.08616809585E-04  3.12498731169E-04  3.16429481316E-04
  3.20409674212E-04  3.24439931772E-04  3.28520883732E-04  3.32653167748E-04
  3.36837429499E-04  3.41074322783E-04  3.45364509624E-04  3.49708660372E-04
  3.54107453809E-04  3.58561577257E-04  3.63071726681E-04  3.67638606801E-04
  3.72262931201E-04  3.76945422442E-04  3.81686812171E-04  3.86487841242E-04
  3.91349259824E-04  3.96271827524E-04  4.01256313504E-04  4.06303496598E-04
  4.11414165441E-04  4.16589118584E-04  4.21829164625E-04  4.27135122330E-04
  4.32507820768E-04  4.37948099432E-04  4.43456808378E-04  4.49034808353E-04
  4.54682970930E-04  4.60402178646E-04  4.66193325139E-04  4.72057315288E-04
  4.77995065353E-04  4.84007503119E-04  4.90095568043E-04  4.96260211395E-04
  5.02502396416E-04  5.08823098458E-04  5.15223305145E-04  5.21704016521E-04
  5.28266245212E-04  5.34911016578E-04  5.41639368878E-04  5.48452353432E-04
  5.55351034782E-04  5.62336490861E-04  5.69409813161E-04  5.76572106903E-04
  5.83824491209E-04  5.91168099280E-04  5.98604078569E-04  6.06133590964E-04
  6.13757812965E-04  6.21477935873E-04  6.29295165973E-04  6.37210724723E-04
  6.45225848945E-04  6.53341791018E-04  6.61559819076E-04  6.69881217202E-04
  6.78307285630E-04  6.86839340952E-04  6.95478716319E-04  7.04226761649E-04
  7.13084843844E-04  7.22054346997E-04  7.31136672610E-04  7.40333239816E-04
  7.49645485597E-04  7.59074865011E-04  7.68622851416E-04  7.78290936705E-04
  7.88080631537E-04  7.97993465571E-04  8.08030987708E-04  8.18194766330E-04
  8.28486389549E-04  8.38907465452E-04  8.49459622353E-04  8.60144509049E-04
  8.70963795074E-04  8.81919170964E-04  8.93012348518E-04  9.04245061069E-04
  9.15619063751E-04  9.27136133774E-04  9.38798070704E-04  9.50606696743E-04
  9.62563857012E-04  9.74671419842E-04  9.86931277065E-04  9.99345344307E-04
  1.01191556129E-03  1.02464389214E-03  1.03753232569E-03  1.05058287577E-03
  1.06379758156E-03  1.07717850789E-03  1.09072774555E-03  1.10444741164E-03
  1.11833964989E-03  1.13240663098E-03  1.14665055291E-03  1.16107364133E-03
  1.17567814986E-03  1.19046636050E-03  1.20544058392E-03  1.22060315989E-03
  1.23595645759E-03  1.25150287600E-03  1.26724484428E-03  1.28318482214E-03
  1.29932530024E-03  1.31566880057E-03  1.33221787682E-03  1.34897511482E-03
  1.36594313293E-03  1.38312458244E-03  1.40052214797E-03  1.41813854794E-03
  1.43597653495E-03  1.45403889621E-03  1.47232845400E-03  1.49084806611E-03
  1.50960062626E-03  1.52858906459E-03  1.54781634806E-03  1.56728548099E-03
  1.58699950546E-03  1.60696150184E-03  1.62717458922E-03  1.64764192593E-03
  1.66836671006E-03  1.68935217987E-03  1.71060161440E-03  1.73211833391E-03
  1.75390570044E-03  1.77596711830E-03  1.79830603463E-03  1.82092593995E-03
  1.84383036864E-03  1.86702289958E-03  1.89050715665E-03  1.91428680931E-03
  1.93836557317E-03  1.96274721060E-03  1.98743553128E-03  2.01243439280E-03
  2.03774770129E-03  2.06337941200E-03  2.08933352994E-03  2.11561411050E-03
  2.14222526007E-03  2.16917113669E-03  2.19645595072E-03  2.22408396545E-03
  2.25205949784E-03  2.28038691910E-03  2.30907065545E-03  2.33811518880E-03
  2.36752505739E-03  2.39730485660E-03  2.42745923957E-03  2.45799291798E-03
  2.48891066278E-03  2.52021730495E-03  2.55191773619E-03  2.58401690977E-03
  2.61651984125E-03  2.64943160928E-03  2.68275735638E-03  2.71650228979E-03
  2.75067168220E-03  2.78527087266E-03  2.82030526736E-03  2.85578034049E-03
  2.89170163511E-03  2.92807476400E-03  2.96490541053E-03  3.00219932956E-03
  3.03996234834E-03  3.07820036742E-03  3.11691936158E-03  3.15612538072E-03
  3.19582455088E-03  3.23602307513E-03  3.27672723456E-03  3.31794338929E-03
  3.35967797943E-03  3.40193752609E-03  3.44472863240E-03  3.48805798458E-03
  3.53193235291E-03  3.57635859285E-03  3.62134364610E-03  3.66689454167E-03
  3.71301839697E-03  3.75972241894E-03  3.80701390519E-03  3.85490024511E-03
  3.90338892104E-03  3.95248750943E-03  4.00220368203E-03  4.05254520710E-03
  4.10351995061E-03  4.15513587745E-03  4.20740105273E-03  4.26032364298E-03
  4.31391191747E-03  4.36817424948E-03  4.42311911760E-03  4.47875510708E-03
  4.53509091115E-03  4.59213533241E-03  4.64989728416E-03  4.70838579182E-03
  4.76760999433E-03  4.82757914561E-03  4.88830261595E-03  4.94978989352E-03
  5.01205058584E-03  5.07509442125E-03  5.13893125049E-03  5.20357104819E-03
  5.26902391446E-03  5.33530007644E-03  5.40240988990E-03  5.47036384091E-03
  5.53917254739E-03  5.60884676085E-03  5.67939736803E-03  5.75083539261E-03
  5.82317199691E-03  5.89641848369E-03  5.97058629785E-03  6.04568702826E-03
  6.12173240958E-03  6.19873432404E-03  6.27670480334E-03  6.35565603055E-03
  6.43560034194E-03  6.51655022897E-03  6.59851834024E-03  6.68151748342E-03
  6.76556062731E-03  6.85066090380E-03  6.93683161000E-03  7.02408621025E-03
  7.11243833827E-03  7.20190179924E-03  7.29249057202E-03  7.38421881129E-03
  7.47710084978E-03  7.57115120048E-03  7.66638455896E-03  7.76281580563E-03
  7.86046000806E-03  7.95933242336E-03  8.05944850054E-03  8.16082388295E-03
  8.26347441069E-03  8.36741612312E-03  8.47266526135E-03  8.57923827076E-03
  8.68715180360E-03  8.79642272159E-03  8.90706809852E-03  9.01910522297E-03
  9.13255160096E-03  9.24742495871E-03  9.36374324543E-03  9.48152463608E-03
  9.60078753425E-03  9.72155057500E-03  9.84383262781E-03  9.96765279949E-03
  1.00930304372E-02  1.02199851315E-02  1.03485367192E-02  1.04787052868E-02
  1.06105111735E-02  1.07439749741E-02  1.08791175427E-02  1.10159599955E-02
  1.11545237145E-02  1.12948303505E-02  1.14369018267E-02  1.15807603421E-02
  1.17264283748E-02  1.18739286859E-02  1.20232843225E-02  1.21745186217E-02
  1.23276552142E-02  1.24827180279E-02  1.26397312917E-02  1.27987195393E-02
  1.29597076128E-02  1.31227206670E-02  1.32877841730E-02  1.34549239223E-02
  1.36241660308E-02  1.37955369430E-02  1.39690634359E-02  1.41447726234E-02
  1.43226919604E-02  1.45028492472E-02  1.46852726336E-02  1.48699906238E-02
  1.50570320803E-02  1.52464262286E-02  1.54382026621E-02  1.56323913462E-02
  1.58290226232E-02  1.60281272172E-02  1.62297362387E-02  1.64338811895E-02
  1.66405939676E-02  1.68499068725E-02  1.70618526095E-02  1.72764642958E-02
  1.74937754647E-02  1.77138200717E-02  1.79366324990E-02  1.81622475617E-02
  1.83907005125E-02  1.86220270477E-02  1.88562633125E-02  1.90934459069E-02
  1.93336118909E-02  1.95767987912E-02  1.98230446061E-02  2.00723878121E-02
  2.03248673695E-02  2.05805227288E-02  2.08393938366E-02  2.11015211421E-02
  2.13669456032E-02  2.16357086931E-02  2.19078524064E-02  2.21834192663E-02
  2.24624523305E-02  2.27449951986E-02  2.30310920185E-02  2.33207874934E-02
  2.36141268888E-02  2.39111560395E-02  2.42119213571E-02  2.45164698366E-02
  2.48248490643E-02  2.51371072253E-02  2.54532931104E-02  2.57734561244E-02
  2.60976462932E-02  2.64259142725E-02  2.67583113546E-02  2.70948894772E-02
  2.74357012315E-02  2.77807998700E-02  2.81302393149E-02  2.84840741669E-02
  2.88423597135E-02  2.92051519375E-02  2.95725075259E-02  2.99444838787E-02
  3.03211391181E-02  3.07025320972E-02  3.10887224093E-02  3.14797703976E-02
  3.18757371641E-02  3.22766845793E-02  3.26826752922E-02  3.30937727396E-02
  3.35100411563E-02  3.39315455851E-02  3.43583518869E-02  3.47905267511E-02
  3.52281377059E-02  3.56712531289E-02  3.61199422578E-02  3.65742752012E-02
  3.70343229494E-02  3.75001573860E-02  3.79718512984E-02  3.84494783899E-02
  3.89331132906E-02  3.94228315694E-02  3.99187097459E-02  4.04208253020E-02
  4.09292566943E-02  4.14440833662E-02  4.19653857605E-02  4.24932453317E-02
  4.30277445589E-02  4.35689669587E-02  4.41169970983E-02  4.46719206084E-02
  4.52338241970E-02  4.58027956627E-02  4.63789239083E-02  4.69622989552E-02
  4.75530119569E-02  4.81511552134E-02  4.87568221859E-02  4.93701075110E-02
  4.99911070159E-02  5.06199177329E-02  5.12566379151E-02  5.19013670513E-02
  5.25542058816E-02  5.32152564136E-02  5.38846219376E-02  5.45624070434E-02
  5.52487176364E-02  5.59436609538E-02  5.66473455821E-02  5.73598814735E-02
  5.80813799629E-02  5.88119537862E-02  5.95517170969E-02  6.03007854846E-02
  6.10592759927E-02  6.18273071369E-02  6.26049989236E-02  6.33924728687E-02
  6.41898520167E-02  6.49972609597E-02  6.58148258570E-02  6.66426744547E-02
  6.74809361059E-02  6.83297417906E-02  6.91892241365E-02  7.00595174394E-02
  7.09407576845E-02  7.18330825673E-02  7.27366315154E-02  7.36515457101E-02
  7.45779681087E-02  7.55160434666E-02  7.64659183599E-02  7.74277412085E-02
  7.84016622991E-02  7.93878338091E-02  8.03864098296E-02  8.13975463901E-02
  8.24214014829E-02  8.34581350874E-02  8.45079091953E-02  8.55708878359E-02
  8.66472371018E-02  8.77371251748E-02  8.88407223521E-02  8.99582010731E-02
  9.10897359460E-02  9.22355037754E-02  9.33956835900E-02  9.45704566701E-02
  9.57600065765E-02  9.69645191788E-02  9.81841826844E-02  9.94191876684E-02
  1.00669727103E-01  1.01935996387E-01  1.03218193377E-01  1.04516518421E-01
  1.05831174383E-01  1.07162366682E-01  1.08510303318E-01  1.09875194910E-01
  1.11257254724E-01  1.12656698712E-01  1.14073745537E-01  1.15508616617E-01
  1.16961536154E-01  1.18432731169E-01  1.19922431538E-01  1.21430870032E-01
  1.22958282346E-01  1.24504907142E-01  1.26070986084E-01  1.27656763873E-01
  1.29262488291E-01  1.30888410236E-01  1.32534783761E-01  1.34201866116E-01
  1.35889917786E-01  1.37599202532E-01  1.39329987433E-01  1.41082542928E-01
  1.42857142857E-01  1.44654064506E-01  1.46473588646E-01  1.48315999583E-01
  1.50181585197E-01  1.52070636988E-01  1.53983450126E-01  1.55920323492E-01
  1.57881559725E-01  1.59867465273E-01  1.61878350438E-01  1.63914529425E-01
  1.65976320390E-01  1.68064045493E-01  1.70178030945E-01  1.72318607060E-01
  1.74486108309E-01  1.76680873366E-01  1.78903245170E-01  1.81153570970E-01
  1.83432202384E-01  1.85739495453E-01  1.88075810695E-01  1.90441513166E-01
  1.92836972511E-01  1.95262563025E-01  1.97718663712E-01  2.00205658342E-01
  2.02723935513E-01  2.05273888712E-01  2.07855916374E-01  2.10470421946E-01
  2.13117813949E-01  2.15798506044E-01  2.18512917095E-01  2.21261471233E-01
  2.24044597927E-01  2.26862732045E-01  2.29716313927E-01  2.32605789449E-01
  2.35531610100E-01  2.38494233044E-01  2.41494121197E-01  2.44531743298E-01
  2.47607573981E-01  2.50722093851E-01  2.53875789559E-01  2.57069153875E-01
  2.60302685770E-01  2.63576890489E-01  2.66892279633E-01  2.70249371239E-01
  2.73648689859E-01  2.77090766644E-01  2.80576139424E-01  2.84105352797E-01
  2.87678958210E-01  2.91297514045E-01  2.94961585709E-01  2.98671745722E-01
  3.02428573802E-01  3.06232656962E-01  3.10084589598E-01  3.13984973581E-01
  3.17934418356E-01  3.21933541030E-01  3.25982966476E-01  3.30083327423E-01
  3.34235264561E-01  3.38439426639E-01  3.42696470567E-01  3.47007061515E-01
  3.51371873022E-01  3.55791587100E-01  3.60266894337E-01  3.64798494009E-01
  3.69387094188E-01  3.74033411852E-01  3.78738172998E-01  3.83502112753E-01
  3.88325975494E-01  3.93210514959E-01  3.98156494367E-01  4.03164686537E-01
  4.08235874009E-01  4.13370849167E-01  4.18570414362E-01  4.23835382035E-01
  4.29166574849E-01  4.34564825814E-01  4.40030978417E-01  4.45565886755E-01
  4.51170415670E-01  4.56845440880E-01  4.62591849120E-01  4.68410538277E-01
  4.74302417534E-01  4.80268407508E-01  4.86309440399E-01  4.92426460128E-01
  4.98620422495E-01  5.04892295316E-01  5.11243058586E-01  5.17673704624E-01
  5.24185238231E-01  5.30778676849E-01  5.37455050714E-01  5.44215403025E-01
  5.51060790100E-01  5.57992281544E-01  5.65010960417E-01  5.72117923403E-01
  5.79314280978E-01  5.86601157588E-01  5.93979691822E-01  6.01451036592E-01
  6.09016359310E-01  6.16676842073E-01  6.24433681847E-01  6.32288090655E-01
  6.40241295763E-01  6.48294539876E-01  6.56449081330E-01  6.64706194288E-01
  6.73067168942E-01  6.81533311710E-01  6.90105945444E-01  6.98786409637E-01
  7.07576060628E-01  7.16476271818E-01  7.25488433883E-01  7.34613954992E-01
  7.43854261026E-01  7.53210795801E-01  7.62685021296E-01  7.72278417877E-01
  7.81992484532E-01  7.91828739104E-01  8.01788718528E-01  8.11873979069E-01
  8.22086096572E-01  8.32426666700E-01  8.42897305188E-01  8.53499648095E-01
  8.64235352059E-01  8.75106094555E-01  8.86113574158E-01  8.97259510810E-01
  9.08545646086E-01  9.19973743468E-01  9.31545588619E-01  9.43262989663E-01
  9.55127777468E-01  9.67141805932E-01  9.79306952271E-01  9.91625117314E-01
  1.00409822580E+00  1.01672822667E+00  1.02951709340E+00  1.04246682427E+00
  1.05557944270E+00  1.06885699757E+00  1.08230156352E+00  1.09591524129E+00
  1.10970015804E+00  1.12365846771E+00  1.13779235129E+00  1.15210401724E+00
  1.16659570180E+00  1.18126966930E+00  1.19612821259E+00  1.21117365335E+00
  1.22640834245E+00  1.24183466036E+00  1.25745501746E+00  1.27327185446E+00
  1.28928764278E+00  1.30550488491E+00  1.32192611484E+00  1.33855389842E+00
  1.35539083377E+00  1.37243955169E+00  1.38970271608E+00  1.40718302435E+00
  1.42488320783E+00  1.44280603221E+00  1.46095429797E+00  1.47933084081E+00
  1.49793853210E+00  1.51678027934E+00  1.53585902658E+00  1.55517775492E+00
  1.57473948295E+00  1.59454726722E+00  1.61460420275E+00  1.63491342348E+00
  1.65547810275E+00  1.67630145384E+00  1.69738673044E+00  1.71873722718E+00
  1.74035628010E+00  1.76224726723E+00  1.78441360909E+00  1.80685876920E+00
  1.82958625467E+00  1.85259961671E+00  1.87590245121E+00  1.89949839929E+00
  1.92339114786E+00  1.94758443020E+00  1.97208202658E+00  1.99688776479E+00
  2.02200552077E+00  2.04743921923E+00  2.07319283423E+00  2.09927038983E+00
  2.12567596070E+00  2.15241367276E+00  2.17948770384E+00  2.20690228430E+00
  2.23466169774E+00  2.26277028162E+00  2.29123242795E+00  2.32005258401E+00
  2.34923525301E+00  2.37878499480E+00  2.40870642658E+00  2.43900422365E+00
  2.46968312008E+00  2.50074790953E+00  2.53220344592E+00  2.56405464426E+00
  2.59630648135E+00  2.62896399661E+00  2.66203229284E+00  2.69551653704E+00
  2.72942196118E+00  2.76375386305E+00  2.79851760709E+00  2.83371862519E+00
  2.86936241760E+00  2.90545455372E+00  2.94200067303E+00  2.97900648593E+00
  3.01647777465E+00  3.05442039416E+00  3.09284027307E+00  3.13174341457E+00
  3.17113589735E+00  3.21102387656E+00  3.25141358479E+00  3.29231133300E+00
  3.33372351156E+00  3.37565659120E+00  3.41811712405E+00  3.46111174466E+00
  3.50464717102E+00  3.54873020562E+00  3.59336773655E+00  3.63856673849E+00
  3.68433427388E+00  3.73067749401E+00  3.77760364008E+00  3.82512004441E+00
  3.87323413152E+00  3.92195341935E+00  3.97128552038E+00  4.02123814285E+00
  4.07181909197E+00  4.12303627110E+00  4.17489768303E+00  4.22741143123E+00
  4.28058572106E+00  4.33442886111E+00  4.38894926450E+00  4.44415545014E+00
  4.50005604411E+00  4.55665978099E+00  4.61397550523E+00  4.67201217253E+00
  4.73077885124E+00  4.79028472377E+00  4.85053908804E+00  4.91155135890E+00
  4.97333106966E+00  5.03588787351E+00  5.09923154509E+00  5.16337198198E+00
  5.22831920624E+00  5.29408336601E+00  5.36067473709E+00  5.42810372449E+00
  5.49638086415E+00  5.56551682450E+00  5.63552240817E+00  5.70640855369E+00
  5.77818633715E+00  5.85086697399E+00  5.92446182069E+00  5.99898237661E+00
  6.07444028572E+00  6.15084733849E+00  6.22821547367E+00  6.30655678020E+00
  6.38588349904E+00  6.46620802518E+00  6.54754290948E+00  6.62990086067E+00
  6.71329474737E+00  6.79773760003E+00  6.88324261301E+00  6.96982314666E+00
  7.05749272936E+00  7.14626505966E+00  7.23615400841E+00  7.32717362094E+00
  7.41933811926E+00  7.51266190426E+00  7.60715955796E+00  7.70284584582E+00
  7.79973571902E+00  7.89784431679E+00  7.99718696881E+00  8.09777919755E+00
  8.19963672078E+00  8.30277545392E+00  8.40721151262E+00  8.51296121522E+00
  8.62004108534E+00  8.72846785441E+00  8.83825846434E+00  8.94943007014E+00
  9.06200004259E+00  9.17598597099E+00  9.29140566586E+00  9.40827716177E+00
  9.52661872013E+00  9.64644883205E+00  9.76778622122E+00  9.89064984687E+00
  1.00150589067E+01  1.01410328398E+01  1.02685913300E+01  1.03977543084E+01
  1.05285419571E+01  1.06609747119E+01  1.07950732657E+01  1.09308585716E+01
  1.10683518465E+01  1.12075745738E+01  1.13485485075E+01  1.14912956749E+01
  1.16358383807E+01  1.17821992099E+01  1.19304010317E+01  1.20804670030E+01
  1.22324205717E+01  1.23862854811E+01  1.25420857728E+01  1.26998457909E+01
  1.28595901858E+01  1.30213439178E+01  1.31851322612E+01  1.33509808084E+01
  1.35189154736E+01  1.36889624967E+01  1.38611484481E+01  1.40355002322E+01
  1.42120450917E+01  1.43908106122E+01  1.45718247261E+01  1.47551157173E+01
  1.49407122253E+01  1.51286432500E+01  1.53189381560E+01  1.55116266773E+01
  1.57067389217E+01  1.59043053761E+01  1.61043569106E+01  1.63069247836E+01
  1.65120406467E+01  1.67197365499E+01  1.69300449458E+01  1.71429986957E+01
  1.73586310741E+01  1.75769757739E+01  1.77980669119E+01  1.80219390341E+01
  1.82486271209E+01  1.84781665928E+01  1.87105933158E+01  1.89459436072E+01
  1.91842542407E+01  1.94255624530E+01  1.96699059490E+01  1.99173229078E+01
  2.01678519888E+01  2.04215323377E+01  2.06784035926E+01  2.09385058901E+01
  2.12018798718E+01  2.14685666903E+01  2.17386080161E+01  2.20120460436E+01
  2.22889234981E+01  2.25692836422E+01  2.28531702828E+01  2.31406277777E+01
  2.34317010428E+01  2.37264355589E+01  2.40248773788E+01  2.43270731347E+01
  2.46330700453E+01  2.49429159231E+01  2.52566591823E+01  2.55743488460E+01
  2.58960345536E+01  2.62217665693E+01  2.65515957894E+01  2.68855737504E+01
  2.72237526369E+01  2.75661852902E+01  2.79129252161E+01  2.82640265933E+01
  2.86195442821E+01  2.89795338330E+01  2.93440514950E+01  2.97131542247E+01
  3.00868996952E+01  3.04653463051E+01  3.08485531872E+01  3.12365802186E+01
  3.16294880292E+01  3.20273380116E+01  3.24301923308E+01  3.28381139334E+01
  3.32511665582E+01  3.36694147455E+01  3.40929238472E+01  3.45217600377E+01
  3.49559903235E+01  3.53956825538E+01  3.58409054315E+01  3.62917285237E+01
  3.67482222723E+01  3.72104580053E+01  3.76785079481E+01  3.81524452345E+01
  3.86323439180E+01  3.91182789839E+01  3.96103263604E+01  4.01085629311E+01
  4.06130665463E+01  4.11239160357E+01  4.16411912208E+01  4.21649729266E+01
  4.26953429953E+01  4.32323842982E+01  4.37761807491E+01  4.43268173172E+01
  4.48843800408E+01  4.54489560401E+01  4.60206335312E+01  4.65995018400E+01
  4.71856514157E+01  4.77791738454E+01  4.83801618683E+01  4.89887093899E+01
  4.96049114970E+01  5.02288644724E+01  5.08606658101E+01  5.15004142303E+01
  5.21482096950E+01  5.28041534236E+01  5.34683479086E+01  5.41408969317E+01
  5.48219055802E+01  5.55114802629E+01  5.62097287273E+01  5.69167600762E+01
  5.76326847847E+01  5.83576147174E+01  5.90916631461E+01  5.98349447675E+01
  6.05875757207E+01  6.13496736058E+01  6.21213575023E+01  6.29027479873E+01
  6.36939671546E+01  6.44951386339E+01  6.53063876098E+01  6.61278408417E+01
  6.69596266832E+01  6.78018751026E+01  6.86547177030E+01  6.95182877426E+01
  7.03927201562E+01  7.12781515755E+01  7.21747203510E+01  7.30825665734E+01
  7.40018320955E+01  7.49326605544E+01  7.58751973940E+01  7.68295898876E+01
  7.77959871608E+01  7.87745402154E+01  7.97654019521E+01  8.07687271952E+01
  8.17846727162E+01  8.28133972588E+01  8.38550615631E+01  8.49098283914E+01
  8.59778625532E+01  8.70593309308E+01  8.81544025061E+01  8.92632483861E+01
  9.03860418303E+01  9.15229582774E+01  9.26741753730E+01  9.38398729970E+01
  9.50202332921E+01  9.62154406919E+01  9.74256819501E+01  9.86511461693E+01
  9.98920248308E+01
  </PP_R>
  <PP_RAB>
  1.62836065278E-06  1.64884290834E-06  1.66958279896E-06  1.69058356529E-06
  1.71184848874E-06  1.73338089200E-06  1.75518413955E-06  1.77726163820E-06
  1.79961683759E-06  1.82225323077E-06  1.84517435473E-06  1.86838379093E-06
  1.89188516591E-06  1.91568215179E-06  1.93977846690E-06  1.96417787635E-06
  1.98888419258E-06  2.01390127602E-06  2.03923303562E-06  2.06488342954E-06
  2.09085646570E-06  2.11715620243E-06  2.14378674913E-06  2.17075226686E-06
  2.19805696906E-06  2.22570512213E-06  2.25370104615E-06  2.28204911555E-06
  2.31075375976E-06  2.33981946395E-06  2.36925076969E-06  2.39905227569E-06
  2.42922863848E-06  2.45978457319E-06  2.49072485424E-06  2.52205431612E-06
  2.55377785412E-06  2.58590042510E-06  2.61842704829E-06  2.65136280603E-06
  2.68471284460E-06  2.71848237502E-06  2.75267667384E-06  2.78730108399E-06
  2.82236101560E-06  2.85786194687E-06  2.89380942487E-06  2.93020906649E-06
  2.96706655924E-06  3.00438766217E-06  3.04217820679E-06  3.08044409794E-06
  3.11919131475E-06  3.15842591155E-06  3.19815401882E-06  3.23838184417E-06
  3.27911567327E-06  3.32036187086E-06  3.36212688175E-06  3.40441723180E-06
  3.44723952898E-06  3.49060046434E-06  3.53450681313E-06  3.57896543580E-06
  3.62398327910E-06  3.66956737716E-06  3.71572485259E-06  3.76246291759E-06
  3.80978887507E-06  3.85771011981E-06  3.90623413961E-06  3.95536851644E-06
  4.00512092765E-06  4.05549914716E-06  4.10651104665E-06  4.15816459685E-06
  4.21046786873E-06  4.26342903478E-06  4.31705637029E-06  4.37135825465E-06
  4.42634317262E-06  4.48201971572E-06  4.53839658352E-06  4.59548258501E-06
  4.65328664002E-06  4.71181778052E-06  4.77108515214E-06  4.83109801552E-06
  4.89186574780E-06  4.95339784405E-06  5.01570391880E-06  5.07879370748E-06
  5.14267706801E-06  5.20736398230E-06  5.27286455781E-06  5.33918902913E-06
  5.40634775960E-06  5.47435124291E-06  5.54321010473E-06  5.61293510441E-06
  5.68353713662E-06  5.75502723308E-06  5.82741656424E-06  5.90071644110E-06
  5.97493831691E-06  6.05009378899E-06  6.12619460053E-06  6.20325264244E-06
  6.28127995520E-06  6.36028873073E-06  6.44029131431E-06  6.52130020652E-06
  6.60332806515E-06  6.68638770722E-06  6.77049211098E-06  6.85565441790E-06
  6.94188793478E-06  7.02920613577E-06  7.11762266451E-06  7.20715133628E-06
  7.29780614011E-06  7.38960124100E-06  7.48255098212E-06  7.57666988704E-06
  7.67197266206E-06  7.76847419841E-06  7.86618957466E-06  7.96513405903E-06
  8.06532311181E-06  8.16677238773E-06  8.26949773845E-06  8.37351521502E-06
  8.47884107038E-06  8.58549176190E-06  8.69348395398E-06  8.80283452062E-06
  8.91356054805E-06  9.02567933746E-06  9.13920840763E-06  9.25416549770E-06
  9.37056856997E-06  9.48843581263E-06  9.60778564270E-06  9.72863670882E-06
  9.85100789422E-06  9.97491831964E-06  1.01003873463E-05  1.02274345791E-05
  1.03560798694E-05  1.04863433181E-05  1.06182452794E-05  1.07518063631E-05
  1.08870474384E-05  1.10239896370E-05  1.11626543565E-05  1.13030632634E-05
  1.14452382969E-05  1.15892016722E-05  1.17349758838E-05  1.18825837093E-05
  1.20320482127E-05  1.21833927480E-05  1.23366409633E-05  1.24918168038E-05
  1.26489445162E-05  1.28080486518E-05  1.29691540711E-05  1.31322859471E-05
  1.32974697695E-05  1.34647313486E-05  1.36340968194E-05  1.38055926455E-05
  1.39792456236E-05  1.41550828873E-05  1.43331319114E-05  1.45134205166E-05
  1.46959768733E-05  1.48808295062E-05  1.50680072990E-05  1.52575394986E-05
  1.54494557199E-05  1.56437859500E-05  1.58405605534E-05  1.60398102767E-05
  1.62415662530E-05  1.64458600071E-05  1.66527234602E-05  1.68621889353E-05
  1.70742891617E-05  1.72890572805E-05  1.75065268497E-05  1.77267318493E-05
  1.79497066868E-05  1.81754862026E-05  1.84041056750E-05  1.86356008264E-05
  1.88700078283E-05  1.91073633073E-05  1.93477043508E-05  1.95910685124E-05
  1.98374938183E-05  2.00870187730E-05  2.03396823652E-05  2.05955240742E-05
  2.08545838757E-05  2.11169022484E-05  2.13825201800E-05  2.16514791739E-05
  2.19238212555E-05  2.21995889787E-05  2.24788254329E-05  2.27615742493E-05
  2.30478796080E-05  2.33377862448E-05  2.36313394581E-05  2.39285851163E-05
  2.42295696646E-05  2.45343401325E-05  2.48429441410E-05  2.51554299100E-05
  2.54718462661E-05  2.57922426500E-05  2.61166691243E-05  2.64451763813E-05
  2.67778157509E-05  2.71146392086E-05  2.74556993840E-05  2.78010495682E-05
  2.81507437230E-05  2.85048364887E-05  2.88633831932E-05  2.92264398599E-05
  2.95940632174E-05  2.99663107075E-05  3.03432404946E-05  3.07249114747E-05
  3.11113832848E-05  3.15027163118E-05  3.18989717023E-05  3.23002113721E-05
  3.27064980156E-05  3.31178951159E-05  3.35344669548E-05  3.39562786223E-05
  3.43833960275E-05  3.48158859082E-05  3.52538158420E-05  3.56972542561E-05
  3.61462704389E-05  3.66009345500E-05  3.70613176316E-05  3.75274916195E-05
  3.79995293542E-05  3.84775045928E-05  3.89614920197E-05  3.94515672590E-05
  3.99478068860E-05  4.04502884391E-05  4.09590904320E-05  4.14742923662E-05
  4.19959747429E-05  4.25242190761E-05  4.30591079050E-05  4.36007248072E-05
  4.41491544113E-05  4.47044824106E-05  4.52667955763E-05  4.58361817709E-05
  4.64127299621E-05  4.69965302368E-05  4.75876738149E-05  4.81862530639E-05
  4.87923615130E-05  4.94060938679E-05  5.00275460254E-05  5.06568150888E-05
  5.12939993826E-05  5.19391984681E-05  5.25925131591E-05  5.32540455373E-05
  5.39238989684E-05  5.46021781185E-05  5.52889889700E-05  5.59844388384E-05
  5.66886363894E-05  5.74016916551E-05  5.81237160520E-05  5.88548223977E-05
  5.95951249292E-05  6.03447393201E-05  6.11037826994E-05  6.18723736690E-05
  6.26506323229E-05  6.34386802656E-05  6.42366406311E-05  6.50446381024E-05
  6.58627989308E-05  6.66912509555E-05  6.75301236238E-05  6.83795480113E-05
  6.92396568424E-05  7.01105845106E-05  7.09924671004E-05  7.18854424076E-05
  7.27896499614E-05  7.37052310461E-05  7.46323287231E-05  7.55710878533E-05
  7.65216551197E-05  7.74841790504E-05  7.84588100418E-05  7.94457003818E-05
  8.04450042742E-05  8.14568778622E-05  8.24814792530E-05  8.35189685428E-05
  8.45695078413E-05  8.56332612975E-05  8.67103951250E-05  8.78010776282E-05
  8.89054792283E-05  9.00237724905E-05  9.11561321503E-05  9.23027351412E-05
  9.34637606222E-05  9.46393900060E-05  9.58298069870E-05  9.70351975704E-05
  9.82557501007E-05  9.94916552920E-05  1.00743106257E-04  1.02010298537E-04
  1.03293430134E-04  1.04592701539E-04  1.05908315767E-04  1.07240478384E-04
  1.08589397545E-04  1.09955284020E-04  1.11338351232E-04  1.12738815287E-04
  1.14156895012E-04  1.15592811984E-04  1.17046790568E-04  1.18519057951E-04
  1.20009844178E-04  1.21519382188E-04  1.23047907848E-04  1.24595659994E-04
  1.26162880465E-04  1.27749814143E-04  1.29356708990E-04  1.30983816085E-04
  1.32631389668E-04  1.34299687176E-04  1.35988969283E-04  1.37699499943E-04
  1.39431546431E-04  1.41185379381E-04  1.42961272833E-04  1.44759504276E-04
  1.46580354686E-04  1.48424108574E-04  1.50291054031E-04  1.52181482771E-04
  1.54095690177E-04  1.56033975349E-04  1.57996641147E-04  1.59983994241E-04
  1.61996345160E-04  1.64034008337E-04  1.66097302162E-04  1.68186549028E-04
  1.70302075385E-04  1.72444211787E-04  1.74613292949E-04  1.76809657793E-04
  1.79033649505E-04  1.81285615589E-04  1.83565907920E-04  1.85874882797E-04
  1.88212901003E-04  1.90580327858E-04  1.92977533276E-04  1.95404891827E-04
  1.97862782790E-04  2.00351590215E-04  2.02871702984E-04  2.05423514868E-04
  2.08007424596E-04  2.10623835906E-04  2.13273157619E-04  2.15955803697E-04
  2.18672193309E-04  2.21422750896E-04  2.24207906238E-04  2.27028094521E-04
  2.29883756407E-04  2.32775338097E-04  2.35703291407E-04  2.38668073836E-04
  2.41670148637E-04  2.44709984890E-04  2.47788057577E-04  2.50904847651E-04