<PP_INFO>
Generated using "atomic" code by A. Dal Corso  (Quantum ESPRESSO distributi
Author: D.C.   Generation date: 24May2010                                  
N                                                                          
    1        The Pseudo was generated with a Scalar-Relativistic Calculation
    2 1.3000000E+00    L component and cutoff radius for Local Potential
nl pn  l   occ               Rcut            Rcut US             E pseu
2S  1  0  2.00      1.00000000000      1.50000000000     -1.36581595117
2S  1  0  0.00      1.00000000000      1.50000000000      0.50000000000
2P  2  1  3.00      1.00000000000      1.50000000000     -0.52111874429
2P  2  1  0.00      1.00000000000      1.50000000000      0.50000000000
3D  3  2 -2.00      1.30000000000      1.30000000000      0.15000000000
</PP_INFO>


<PP_HEADER>
   0                   Version Number
   N                   Element
   US                  Ultrasoft pseudopotential
    T                  Nonlinear Core Correction
 SLA  PW   PBX  PBC    PBE    Exchange-Correlation functional
    5.00000000000      Z valence
  -19.30183726037      Total energy
     39.605    686.147 Suggested cutoff for wfc and rho
    2                  Max angular momentum component
  679                  Number of points in mesh
    4    4             Number of Wavefunctions, Number of Projectors
 Wavefunctions         nl  l   occ
                       2S  0  2.00
                       3S  0  0.00
                       2P  1  3.00
                       3P  1  0.00
</PP_HEADER>


<PP_MESH>
  <PP_R>
  1.30268852222E-04  1.32900457601E-04  1.35585224934E-04  1.38324228166E-04
  1.41118562933E-04  1.43969347007E-04  1.46877720739E-04  1.49844847518E-04
  1.52871914234E-04  1.55960131754E-04  1.59110735406E-04  1.62324985474E-04
  1.65604167701E-04  1.68949593802E-04  1.72362601994E-04  1.75844557525E-04
  1.79396853223E-04  1.83020910055E-04  1.86718177691E-04  1.90490135088E-04
  1.94338291078E-04  1.98264184977E-04  2.02269387192E-04  2.06355499860E-04
  2.10524157479E-04  2.14777027568E-04  2.19115811332E-04  2.23542244342E-04
  2.28058097230E-04  2.32665176398E-04  2.37365324739E-04  2.42160422375E-04
  2.47052387408E-04  2.52043176691E-04  2.57134786604E-04  2.62329253861E-04
  2.67628656317E-04  2.73035113805E-04  2.78550788978E-04  2.84177888181E-04
  2.89918662328E-04  2.95775407806E-04  3.01750467390E-04  3.07846231185E-04
  3.14065137578E-04  3.20409674212E-04  3.26882378989E-04  3.33485841076E-04
  3.40222701945E-04  3.47095656432E-04  3.54107453809E-04  3.61260898890E-04
  3.68558853147E-04  3.76004235859E-04  3.83600025279E-04  3.91349259824E-04
  3.99255039291E-04  4.07320526097E-04  4.15548946545E-04  4.23943592112E-04
  4.32507820768E-04  4.41245058320E-04  4.50158799778E-04  4.59252610758E-04
  4.68530128906E-04  4.77995065353E-04  4.87651206199E-04  4.97502414030E-04
  5.07552629460E-04  5.17805872709E-04  5.28266245212E-04  5.38937931256E-04
  5.49825199659E-04  5.60932405472E-04  5.72263991727E-04  5.83824491209E-04
  5.95618528272E-04  6.07650820688E-04  6.19926181534E-04  6.32449521119E-04
  6.45225848945E-04  6.58260275713E-04  6.71558015369E-04  6.85124387185E-04
  6.98964817891E-04  7.13084843844E-04  7.27490113243E-04  7.42186388386E-04
  7.57179547981E-04  7.72475589492E-04  7.88080631537E-04  8.04000916343E-04
  8.20242812236E-04  8.36812816191E-04  8.53717556429E-04  8.70963795074E-04
  8.88558430849E-04  9.06508501844E-04  9.24821188327E-04  9.43503815616E-04
  9.62563857012E-04  9.82008936785E-04  1.00184683323E-03  1.02208548176E-03
  1.04273297811E-03  1.06379758156E-03  1.08528771823E-03  1.10721198445E-03
  1.12957915023E-03  1.15239816273E-03  1.17567814986E-03  1.19942842393E-03
  1.22365848536E-03  1.24837802650E-03  1.27359693549E-03  1.29932530024E-03
  1.32557341244E-03  1.35235177167E-03  1.37967108965E-03  1.40754229446E-03
  1.43597653495E-03  1.46498518520E-03  1.49457984906E-03  1.52477236479E-03
  1.55557480979E-03  1.58699950546E-03  1.61905902210E-03  1.65176618392E-03
  1.68513407425E-03  1.71917604067E-03  1.75390570044E-03  1.78933694587E-03
  1.82548394993E-03  1.86236117192E-03  1.89998336321E-03  1.93836557317E-03
  1.97752315521E-03  2.01747177288E-03  2.05822740616E-03  2.09980635784E-03
  2.14222526007E-03  2.18550108096E-03  2.22965113143E-03  2.27469307207E-03
  2.32064492028E-03  2.36752505739E-03  2.41535223610E-03  2.46414558791E-03
  2.51392463080E-03  2.56470927707E-03  2.61651984125E-03  2.66937704825E-03
  2.72330204166E-03  2.77831639220E-03  2.83444210634E-03  2.89170163511E-03
  2.95011788310E-03  3.00971421758E-03  3.07051447787E-03  3.13254298489E-03
  3.19582455088E-03  3.26038448930E-03  3.32624862499E-03  3.39344330447E-03
  3.46199540653E-03  3.53193235291E-03  3.60328211932E-03  3.67607324662E-03
  3.75033485224E-03  3.82609664181E-03  3.90338892104E-03  3.98224260789E-03
  4.06268924488E-03  4.14476101174E-03  4.22849073827E-03  4.31391191747E-03
  4.40105871896E-03  4.48996600262E-03  4.58066933255E-03  4.67320499129E-03
  4.76760999433E-03  4.86392210494E-03  4.96217984925E-03  5.06242253166E-03
  5.16469025058E-03  5.26902391446E-03  5.37546525817E-03  5.48405685965E-03
  5.59484215700E-03  5.70786546581E-03  5.82317199691E-03  5.94080787445E-03
  6.06082015436E-03  6.18325684314E-03  6.30816691710E-03  6.43560034194E-03
  6.56560809272E-03  6.69824217428E-03  6.83355564203E-03  6.97160262314E-03
  7.11243833827E-03  7.25611912356E-03  7.40270245325E-03  7.55224696262E-03
  7.70481247148E-03  7.86046000806E-03  8.01925183345E-03  8.18125146650E-03
  8.34652370921E-03  8.51513467271E-03  8.68715180360E-03  8.86264391105E-03
  9.04168119423E-03  9.22433527045E-03  9.41067920377E-03  9.60078753425E-03
  9.79473630775E-03  9.99260310638E-03  1.01944670795E-02  1.04004089753E-02
  1.06105111735E-02  1.08248577175E-02  1.10435343490E-02  1.12666285415E-02
  1.14942295356E-02  1.17264283748E-02  1.19633179417E-02  1.22049929953E-02
  1.24515502089E-02  1.27030882085E-02  1.29597076128E-02  1.32215110729E-02
  1.34886033138E-02  1.37610911758E-02  1.40390836578E-02  1.43226919604E-02
  1.46120295308E-02  1.49072121078E-02  1.52083577685E-02  1.55155869750E-02
  1.58290226232E-02  1.61487900915E-02  1.64750172912E-02  1.68078347174E-02
  1.71473755016E-02  1.74937754647E-02  1.78471731712E-02  1.82077099850E-02
  1.85755301255E-02  1.89507807257E-02  1.93336118909E-02  1.97241767587E-02
  2.01226315601E-02  2.05291356825E-02  2.09438517329E-02  2.13669456032E-02
  2.17985865367E-02  2.22389471954E-02  2.26882037296E-02  2.31465358477E-02
  2.36141268888E-02  2.40911638955E-02  2.45778376890E-02  2.50743429453E-02
  2.55808782731E-02  2.60976462932E-02  2.66248537199E-02  2.71627114431E-02
  2.77114346130E-02  2.82712427262E-02  2.88423597135E-02  2.94250140293E-02
  3.00194387430E-02  3.06258716324E-02  3.12445552789E-02  3.18757371641E-02
  3.25196697691E-02  3.31766106757E-02  3.38468226689E-02  3.45305738424E-02
  3.52281377059E-02  3.59397932943E-02  3.66658252791E-02  3.74065240829E-02
  3.81621859951E-02  3.89331132906E-02  3.97196143505E-02  4.05220037857E-02
  4.13406025627E-02  4.21757381320E-02  4.30277445589E-02  4.38969626573E-02
  4.47837401261E-02  4.56884316880E-02  4.66113992319E-02  4.75530119569E-02
  4.85136465207E-02  4.94936871900E-02  5.04935259941E-02  5.15135628819E-02
  5.25542058816E-02  5.36158712645E-02  5.46989837107E-02  5.58039764798E-02
  5.69312915835E-02  5.80813799629E-02  5.92547016688E-02  6.04517260454E-02
  6.16729319184E-02  6.29188077866E-02  6.41898520167E-02  6.54865730436E-02
  6.68094895728E-02  6.81591307887E-02  6.95360365657E-02  7.09407576845E-02
  7.23738560522E-02  7.38359049274E-02  7.53274891490E-02  7.68492053707E-02
  7.84016622991E-02  7.99854809379E-02  8.16012948355E-02  8.32497503391E-02
  8.49315068529E-02  8.66472371018E-02  8.83976274009E-02  9.01833779296E-02
  9.20052030119E-02  9.38638314022E-02  9.57600065765E-02  9.76944870303E-02
  9.96680465816E-02  1.01681474680E-01  1.03735576725E-01  1.05831174383E-01
  1.07969105922E-01  1.10150226543E-01  1.12375408724E-01  1.14645542566E-01
  1.16961536154E-01  1.19324315916E-01  1.21734826995E-01  1.24194033628E-01
  1.26702919531E-01  1.29262488291E-01  1.31873763770E-01  1.34537790512E-01
  1.37255634165E-01  1.40028381901E-01  1.42857142857E-01  1.45743048575E-01
  1.48687253456E-01  1.51690935221E-01  1.54755295382E-01  1.57881559725E-01
  1.61070978797E-01  1.64324828408E-01  1.67644410142E-01  1.71031051875E-01
  1.74486108309E-01  1.78010961512E-01  1.81607021474E-01  1.85275726667E-01
  1.89018544620E-01  1.92836972511E-01  1.96732537762E-01  2.00706798652E-01
  2.04761344937E-01  2.08897798491E-01  2.13117813949E-01  2.17423079374E-01
  2.21815316930E-01  2.26296283571E-01  2.30867771742E-01  2.35531610100E-01
  2.40289664243E-01  2.45143837455E-01  2.50096071471E-01  2.55148347250E-01
  2.60302685770E-01  2.65561148835E-01  2.70925839901E-01  2.76398904915E-01
  2.81982533176E-01  2.87678958210E-01  2.93490458663E-01  2.99419359213E-01
  3.05468031500E-01  3.11638895071E-01  3.17934418356E-01  3.24357119647E-01
  3.30909568112E-01  3.37594384815E-01  3.44414243774E-01  3.51371873022E-01
  3.58470055705E-01  3.65711631190E-01  3.73099496203E-01  3.80636605990E-01
  3.88325975494E-01  3.96170680566E-01  4.04173859193E-01  4.12338712753E-01
  4.20668507295E-01  4.29166574849E-01  4.37836314756E-01  4.46681195027E-01
  4.55704753731E-01  4.64910600413E-01  4.74302417534E-01  4.83883961946E-01
  4.93659066395E-01  5.03631641052E-01  5.13805675081E-01  5.24185238231E-01
  5.34774482466E-01  5.45577643624E-01  5.56599043114E-01  5.67843089642E-01
  5.79314280978E-01  5.91017205750E-01  6.02956545285E-01  6.15137075478E-01
  6.27563668703E-01  6.40241295763E-01  6.53175027877E-01  6.66370038713E-01
  6.79831606448E-01  6.93565115891E-01  7.07576060628E-01  7.21870045223E-01
  7.36452787462E-01  7.51330120635E-01  7.66507995875E-01  7.81992484532E-01
  7.97789780611E-01  8.13906203239E-01  8.30348199200E-01  8.47122345513E-01
  8.64235352059E-01  8.81694064269E-01  8.99505465861E-01  9.17676681633E-01
  9.36214980313E-01  9.55127777468E-01  9.74422638470E-01  9.94107281520E-01
  1.01418958074E+00  1.03467756931E+00  1.05557944270E+00  1.07690356195E+00
  1.09865845698E+00  1.12085283005E+00  1.14349555919E+00  1.16659570180E+00
  1.19016249824E+00  1.21420537556E+00  1.23873395121E+00  1.26375803696E+00
  1.28928764278E+00  1.31533298084E+00  1.34190446963E+00  1.36901273811E+00
  1.39666862993E+00  1.42488320783E+00  1.45366775801E+00  1.48303379468E+00
  1.51299306463E+00  1.54355755199E+00  1.57473948295E+00  1.60655133070E+00
  1.63900582040E+00  1.67211593428E+00  1.70589491684E+00  1.74035628010E+00
  1.77551380908E+00  1.81138156726E+00  1.84797390222E+00  1.88530545138E+00
  1.92339114786E+00  1.96224622644E+00  2.00188622968E+00  2.04232701410E+00
  2.08358475655E+00  2.12567596070E+00  2.16861746356E+00  2.21242644233E+00
  2.25712042118E+00  2.30271727829E+00  2.34923525301E+00  2.39669295316E+00
  2.44510936245E+00  2.49450384808E+00  2.54489616852E+00  2.59630648135E+00
  2.64875535139E+00  2.70226375889E+00  2.75685310793E+00  2.81254523497E+00
  2.86936241760E+00  2.92732738346E+00  2.98646331930E+00  3.04679388029E+00
  3.10834319946E+00  3.17113589735E+00  3.23519709188E+00  3.30055240839E+00
  3.36722798987E+00  3.43525050744E+00  3.50464717102E+00  3.57544574019E+00
  3.64767453534E+00  3.72136244893E+00  3.79653895712E+00  3.87323413152E+00
  3.95147865122E+00  4.03130381506E+00  4.11274155418E+00  4.19582444476E+00
  4.28058572106E+00  4.36705928872E+00  4.45527973833E+00  4.54528235924E+00
  4.63710315369E+00  4.73077885124E+00  4.82634692341E+00  4.92384559869E+00
  5.02331387787E+00  5.12479154958E+00  5.22831920624E+00  5.33393826029E+00
  5.44169096077E+00  5.55162041019E+00  5.66377058180E+00  5.77818633715E+00
  5.89491344409E+00  6.01399859500E+00  6.13548942554E+00  6.25943453365E+00
  6.38588349904E+00  6.51488690298E+00  6.64649634854E+00  6.78076448126E+00
  6.91774501019E+00  7.05749272936E+00  7.20006353972E+00  7.34551447150E+00
  7.49390370701E+00  7.64529060393E+00  7.79973571902E+00  7.95730083240E+00
  8.11804897221E+00  8.28204443985E+00  8.44935283570E+00  8.62004108534E+00
  8.79417746635E+00  8.97183163560E+00  9.15307465713E+00  9.33797903057E+00
  9.52661872013E+00  9.71906918420E+00  9.91540740554E+00  1.01157119220E+01
  1.03200628582E+01  1.05285419571E+01  1.07412326131E+01  1.09582199055E+01
  1.11795906319E+01  1.14054333436E+01  1.16358383807E+01  1.18708979083E+01
  1.21107059534E+01  1.23553584423E+01  1.26049532394E+01  1.28595901858E+01
  1.31193711397E+01  1.33844000171E+01  1.36547828329E+01  1.39306277439E+01
  1.42120450917E+01  1.44991474471E+01  1.47920496548E+01  1.50908688795E+01
  1.53957246531E+01  1.57067389217E+01  1.60240360954E+01  1.63477430972E+01
  1.66779894141E+01  1.70149071493E+01  1.73586310741E+01  1.77092986828E+01
  1.80670502472E+01  1.84320288725E+01  1.88043805551E+01  1.91842542407E+01
  1.95718018838E+01  1.99671785086E+01  2.03705422710E+01  2.07820545219E+01
  2.12018798718E+01  2.16301862563E+01  2.20671450037E+01  2.25129309033E+01
  2.29677222755E+01  2.34317010428E+01  2.39050528030E+01  2.43879669030E+01
  2.48806365150E+01  2.53832587133E+01  2.58960345536E+01  2.64191691530E+01
  2.69528717722E+01  2.74973558996E+01  2.80528393360E+01  2.86195442821E+01
  2.91976974276E+01  2.97875300413E+01  3.03892780642E+01  3.10031822036E+01
  3.16294880292E+01  3.22684460717E+01  3.29203119229E+01  3.35853463379E+01
  3.42638153392E+01  3.49559903235E+01  3.56621481700E+01  3.63825713512E+01
  3.71175480461E+01  3.78673722552E+01  3.86323439180E+01  3.94127690335E+01
  4.02089597822E+01  4.10212346509E+01  4.18499185604E+01  4.26953429953E+01
  4.35578461367E+01  4.44377729973E+01  4.53354755597E+01  4.62513129167E+01
  4.71856514157E+01  4.81388648043E+01  4.91113343807E+01  5.01034491457E+01
  5.11156059584E+01  5.21482096950E+01  5.32016734109E+01  5.42764185054E+01
  5.53728748911E+01  5.64914811650E+01  5.76326847847E+01  5.87969422467E+01
  5.99847192695E+01  6.11964909799E+01  6.24327421026E+01  6.36939671546E+01
  6.49806706428E+01  6.62933672656E+01  6.76325821193E+01  6.89988509075E+01
  7.03927201562E+01  7.18147474315E+01  7.32655015633E+01  7.47455628726E+01
  7.62555234037E+01  7.77959871608E+01  7.93675703502E+01  8.09709016259E+01
  8.26066223420E+01  8.42753868084E+01  8.59778625532E+01  8.77147305894E+01
  8.94866856874E+01  9.12944366528E+01  9.31387066102E+01  9.50202332921E+01
  9.69397693342E+01  9.88980825766E+01  1.00895956371E+02
  </PP_R>
  <PP_RAB>
  2.60537704444E-06  2.65800915201E-06  2.71170449869E-06  2.76648456332E-06
  2.82237125866E-06  2.87938694014E-06  2.93755441478E-06  2.99689695037E-06
  3.05743828468E-06  3.11920263508E-06  3.18221470813E-06  3.24649970949E-06
  3.31208335401E-06  3.37899187604E-06  3.44725203988E-06  3.51689115050E-06
  3.58793706446E-06  3.66041820110E-06  3.73436355382E-06  3.80980270175E-06
  3.88676582157E-06  3.96528369953E-06  4.04538774385E-06  4.12710999720E-06
  4.21048314958E-06  4.29554055136E-06  4.38231622664E-06  4.47084488684E-06
  4.56116194461E-06  4.65330352797E-06  4.74730649478E-06  4.84320844750E-06
  4.94104774816E-06  5.04086353381E-06  5.14269573209E-06  5.24658507723E-06
  5.35257312635E-06  5.46070227609E-06  5.57101577956E-06  5.68355776361E-06
  5.79837324656E-06  5.91550815612E-06  6.03500934781E-06  6.15692462371E-06
  6.28130275155E-06  6.40819348425E-06  6.53764757978E-06  6.66971682151E-06
  6.80445403891E-06  6.94191312864E-06  7.08214907619E-06  7.22521797780E-06
  7.37117706293E-06  7.52008471718E-06  7.67200050558E-06  7.82698519648E-06
  7.98510078582E-06  8.14641052194E-06  8.31097893089E-06  8.47887184223E-06
  8.65015641536E-06  8.82490116639E-06  9.00317599556E-06  9.18505221516E-06
  9.37060257812E-06  9.55990130706E-06  9.75302412399E-06  9.95004828060E-06
  1.01510525892E-05  1.03561174542E-05  1.05653249042E-05  1.07787586251E-05
  1.09965039932E-05  1.12186481094E-05  1.14452798345E-05  1.16764898242E-05
  1.19123705654E-05  1.21530164138E-05  1.23985236307E-05  1.26489904224E-05
  1.29045169789E-05  1.31652055143E-05  1.34311603074E-05  1.37024877437E-05
  1.39792963578E-05  1.42616968769E-05  1.45498022649E-05  1.48437277677E-05
  1.51435909596E-05  1.54495117898E-05  1.57616126307E-05  1.60800183269E-05
  1.64048562447E-05  1.67362563238E-05  1.70743511286E-05  1.74192759015E-05
  1.77711686170E-05  1.81301700369E-05  1.84964237665E-05  1.88700763123E-05
  1.92512771402E-05  1.96401787357E-05  2.00369366645E-05  2.04417096352E-05
  2.08546595623E-05  2.12759516312E-05  2.17057543645E-05  2.21442396890E-05
  2.25915830046E-05  2.30479632546E-05  2.35135629972E-05  2.39885684785E-05
  2.44731697071E-05  2.49675605299E-05  2.54719387098E-05  2.59865060048E-05
  2.65114682488E-05  2.70470354335E-05  2.75934217930E-05  2.81508458891E-05
  2.87195306990E-05  2.92997037040E-05  2.98915969812E-05  3.04954472958E-05
  3.11114961959E-05  3.17399901093E-05  3.23811804419E-05  3.30353236785E-05
  3.37026814850E-05  3.43835208135E-05  3.50781140088E-05  3.57867389174E-05
  3.65096789987E-05  3.72472234384E-05  3.79996672641E-05  3.87673114634E-05
  3.95504631042E-05  4.03494354576E-05  4.11645481232E-05  4.19961271569E-05
  4.28445052014E-05  4.37100216192E-05  4.45930226285E-05  4.54938614415E-05
  4.64128984056E-05  4.73505011479E-05  4.83070447220E-05  4.92829117581E-05
  5.02784926161E-05  5.12941855414E-05  5.23303968250E-05  5.33875409650E-05
  5.44660408332E-05  5.55663278440E-05  5.66888421268E-05  5.78340327023E-05
  5.90023576620E-05  6.01942843515E-05  6.14102895574E-05  6.26508596979E-05
  6.39164910176E-05  6.52076897860E-05  6.65249724997E-05  6.78688660894E-05
  6.92399081305E-05  7.06386470581E-05  7.20656423864E-05  7.35214649325E-05
  7.50066970448E-05  7.65219328361E-05  7.80677784208E-05  7.96448521578E-05
  8.12537848977E-05  8.28952202348E-05  8.45698147654E-05  8.62782383495E-05
  8.80211743793E-05  8.97993200525E-05  9.16133866510E-05  9.34640998258E-05
  9.53521998866E-05  9.72784420989E-05  9.92435969850E-05  1.01248450633E-04
  1.03293805012E-04  1.05380478289E-04  1.07509305163E-04  1.09681137193E-04
  1.11896843140E-04  1.14157309316E-04  1.16463439938E-04  1.18816157489E-04
  1.21216403087E-04  1.23665136863E-04  1.26163338342E-04  1.28712006839E-04
  1.31312161854E-04  1.33964843486E-04  1.36671112841E-04  1.39432052463E-04
  1.42248766765E-04  1.45122382471E-04  1.48054049065E-04  1.51044939252E-04
  1.54096249430E-04  1.57209200161E-04  1.60385036669E-04  1.63625029330E-04
  1.66930474184E-04  1.70302693454E-04  1.73743036072E-04  1.77252878221E-04
  1.80833623885E-04  1.84486705409E-04  1.88213584075E-04  1.92015750685E-04
  1.95894726155E-04  1.99852062128E-04  2.03889341590E-04  2.08008179507E-04
  2.12210223470E-04  2.16497154351E-04  2.20870686981E-04  2.25332570830E-04
  2.29884590713E-04  2.34528567497E-04  2.39266358835E-04  2.44099859907E-04
  2.49031004177E-04  2.54061764170E-04  2.59194152255E-04  2.64430221458E-04
  2.69772066275E-04  2.75221823516E-04  2.80781673155E-04  2.86453839208E-04
  2.92240590616E-04  2.98144242156E-04  3.04167155369E-04  3.10311739500E-04
  3.16580452464E-04  3.22975801830E-04  3.29500345823E-04  3.36156694348E-04
  3.42947510033E-04  3.49875509294E-04  3.56943463425E-04  3.64154199699E-04
  3.71510602510E-04  3.79015614515E-04  3.86672237819E-04  3.94483535174E-04
  4.02452631203E-04  4.10582713651E-04  4.18877034658E-04  4.27338912065E-04
  4.35971730734E-04  4.44778943909E-04  4.53764074591E-04  4.62930716954E-04
  4.72282537776E-04  4.81823277910E-04  4.91556753780E-04  5.01486858906E-04
  5.11617565461E-04  5.21952925865E-04  5.32497074398E-04  5.43254228861E-04
  5.54228692260E-04  5.65424854525E-04  5.76847194270E-04  5.88500280585E-04
  6.00388774859E-04  6.12517432649E-04  6.24891105578E-04  6.37514743281E-04
  6.50393395382E-04  6.63532213514E-04  6.76936453377E-04  6.90611476849E-04
  7.04562754119E-04  7.18795865885E-04  7.33316505582E-04  7.48130481658E-04
  7.63243719902E-04  7.78662265811E-04  7.94392287009E-04  8.10440075714E-04
  8.26812051254E-04  8.43514762640E-04  8.60554891178E-04  8.77939253146E-04
  8.95674802522E-04  9.13768633761E-04  9.32227984637E-04  9.51060239137E-04
  9.70272930414E-04  9.89873743800E-04  1.00987051988E-03  1.03027125764E-03
  1.05108411763E-03  1.07231742529E-03  1.09397967421E-03  1.11607952960E-03
  1.13862583167E-03  1.16162759926E-03  1.18509403338E-03  1.20903452091E-03
  1.23345863837E-03  1.25837615573E-03  1.28379704033E-03  1.30973146087E-03
  1.33618979146E-03  1.36318261577E-03  1.39072073131E-03  1.41881515369E-03
  1.44747712104E-03  1.47671809855E-03  1.50654978298E-03  1.53698410741E-03
  1.56803324598E-03  1.59970961876E-03  1.63202589671E-03  1.66499500678E-03
  1.69863013706E-03  1.73294474204E-03  1.76795254802E-03  1.80366755859E-03
  1.84010406024E-03  1.87727662804E-03  1.91520013153E-03  1.95388974061E-03
  1.99336093163E-03  2.03362949361E-03  2.07471153450E-03  2.11662348766E-03
  2.15938211844E-03  2.20300453087E-03  2.24750817448E-03  2.29291085132E-03
  2.33923072308E-03  2.38648631832E-03  2.43469653990E-03  2.48388067257E-03
  2.53405839062E-03  2.58524976582E-03  2.63747527539E-03  2.69075581024E-03
  2.74511268329E-03  2.80056763802E-03  2.85714285714E-03  2.91486097151E-03
  2.97374506912E-03  3.03381870442E-03  3.09510590764E-03  3.15763119450E-03
  3.22141957594E-03  3.28649656816E-03  3.35288820283E-03  3.42062103749E-03
  3.48972216617E-03  3.56021923025E-03  3.63214042949E-03  3.70551453333E-03
  3.78037089239E-03  3.85673945022E-03  3.93465075525E-03  4.01413597304E-03
  4.09522689874E-03  4.17795596981E-03  4.26235627898E-03  4.34846158748E-03
  4.43630633860E-03  4.52592567141E-03  4.61735543484E-03  4.71063220200E-03
  4.80579328485E-03  4.90287674910E-03  5.00192142942E-03  5.10296694500E-03
  5.20605371540E-03  5.31122297670E-03  5.41851679801E-03  5.52797809829E-03
  5.63965066352E-03  5.75357916420E-03  5.86980917327E-03  5.98838718427E-03
  6.10936062999E-03  6.23277790142E-03  6.35868836712E-03  6.48714239295E-03
  6.61819136223E-03  6.75188769630E-03  6.88828487548E-03  7.02743746045E-03
  7.16940111410E-03  7.31423262380E-03  7.46198992407E-03  7.61273211980E-03
  7.76651950988E-03  7.92341361133E-03  8.08347718386E-03  8.24677425505E-03
  8.41337014590E-03  8.58333149699E-03  8.75672629512E-03  8.93362390053E-03
  9.11409507462E-03  9.29821200826E-03  9.48604835068E-03  9.67767923892E-03
  9.87318132789E-03  1.00726328210E-02  1.02761135016E-02  1.04837047646E-02
  1.06954896493E-02  1.09115528725E-02  1.11319808623E-02  1.13568617928E-02
  1.15862856196E-02  1.18203441150E-02  1.20591309057E-02  1.23027415096E-02
  1.25512733741E-02  1.28048259153E-02  1.30635005575E-02  1.33274007743E-02
  1.35966321290E-02  1.38713023178E-02  1.41515212126E-02  1.44374009045E-02
  1.47290557492E-02  1.50266024127E-02  1.53301599175E-02  1.56398496906E-02
  1.59557956122E-02  1.62781240648E-02  1.66069639840E-02  1.69424469103E-02
  1.72847070412E-02  1.76338812854E-02  1.79901093172E-02  1.83535336327E-02
  1.87242996063E-02  1.91025555494E-02  1.94884527694E-02  1.98821456304E-02
  2.02837916147E-02  2.06935513862E-02  2.11115888541E-02  2.15380712390E-02
  2.19731691397E-02  2.24170566009E-02  2.28699111837E-02  2.33319140359E-02
  2.38032499648E-02  2.42841075111E-02  2.47746790242E-02  2.52751607392E-02
  2.57857528555E-02  2.63066596168E-02  2.68380893927E-02  2.73802547622E-02
  2.79333725987E-02  2.84976641566E-02  2.90733551602E-02  2.96606758935E-02
  3.02598612927E-02  3.08711510398E-02  3.14947896590E-02  3.21310266139E-02
  3.27801164080E-02  3.34423186857E-02  3.41178983367E-02  3.48071256020E-02
  3.55102761817E-02  3.62276313452E-02  3.69594780444E-02  3.77061090276E-02
  3.84678229571E-02  3.92449245288E-02  4.00377245935E-02  4.08465402819E-02
  4.16716951311E-02  4.25135192139E-02  4.33723492713E-02  4.42485288467E-02
  4.51424084236E-02  4.60543455658E-02  4.69847050603E-02  4.79338590633E-02
  4.89021872490E-02  4.98900769617E-02  5.08979233703E-02  5.19261296270E-02
  5.29751070278E-02  5.40452751779E-02  5.51370621586E-02  5.62509046993E-02
  5.73872483520E-02  5.85465476691E-02  5.97292663860E-02  6.09358776058E-02
  6.21668639891E-02  6.34227179470E-02  6.47039418376E-02  6.60110481678E-02
  6.73445597973E-02  6.87050101488E-02  7.00929434203E-02  7.15089148038E-02
  7.29534907067E-02  7.44272489786E-02  7.59307791425E-02  7.74646826305E-02
  7.90295730243E-02  8.06260763012E-02  8.22548310836E-02  8.39164888951E-02
  8.56117144211E-02  8.73411857744E-02  8.91055947666E-02  9.09056471848E-02
  9.27420630739E-02  9.46155770248E-02  9.65269384681E-02  9.84769119739E-02
  1.00466277557E-01  1.02495830992E-01  1.04566384125E-01  1.06678765206E-01
  1.08833819215E-01  1.11032408204E-01  1.13275411636E-01  1.15563726743E-01
  1.17898268882E-01  1.20279971900E-01  1.22709788511E-01  1.25188690673E-01
  1.27717669981E-01  1.30297738060E-01  1.32929926971E-01  1.35615289625E-01
  1.38354900204E-01  1.41149854587E-01  1.44001270794E-01  1.46910289430E-01
  1.49878074140E-01  1.52905812079E-01  1.55994714380E-01  1.59146016648E-01
  1.62360979444E-01  1.65640888797E-01  1.68987056714E-01  1.72400821707E-01
  1.75883549327E-01  1.79436632712E-01  1.83061493143E-01  1.86759580611E-01
  1.90532374403E-01  1.94381383684E-01  1.98308148111E-01  2.02314238441E-01
  2.06401257164E-01  2.10570839142E-01  2.14824652263E-01  2.19164398109E-01
  2.23591812637E-01  2.28108666872E-01  2.32716767614E-01  2.37417958167E-01
  2.42214119068E-01  2.47107168847E-01  2.52099064788E-01  2.57191803716E-01
  2.62387422795E-01  2.67688000341E-01  2.73095656657E-01  2.78612554877E-01
  2.84240901834E-01  2.89982948942E-01  2.95840993095E-01  3.01817377590E-01
  3.07914493061E-01  3.14134778435E-01  3.20480721908E-01  3.26954861943E-01
  3.33559788283E-01  3.40298142985E-01  3.47172621482E-01  3.54185973657E-01
  3.61341004943E-01  3.68640577450E-01  3.76087611102E-01  3.83685084814E-01
  3.91436037676E-01  3.99343570171E-01  4.07410845420E-01  4.15641090439E-01
  4.24037597436E-01  4.32603725126E-01  4.41342900074E-01  4.50258618067E-01
  4.59354445510E-01  4.68634020857E-01  4.78101056060E-01  4.87759338061E-01
  4.97612730300E-01  5.07665174267E-01  5.17920691072E-01  5.28383383059E-01
  5.39057435445E-01  5.49947117992E-01  5.61056786719E-01  5.72390885642E-01
  5.83953948551E-01  5.95750600826E-01  6.07785561284E-01  6.20063644071E-01
  6.32589760583E-01  6.45368921434E-01  6.58406238459E-01  6.71706926758E-01
  6.85276306784E-01  6.99119806469E-01  7.13242963399E-01  7.27651427024E-01
  7.42350960923E-01  7.57347445104E-01  7.72646878360E-01  7.88255380671E-01
  8.04179195644E-01  8.20424693017E-01  8.36998371207E-01  8.53906859906E-01
  8.71156922734E-01  8.88755459947E-01  9.06709511194E-01  9.25026258335E-01
  9.43713028313E-01  9.62777296086E-01  9.82226687614E-01  1.00206898291E+00
  1.02231211917E+00  1.04296419390E+00  1.06403346822E+00  1.08552837011E+00
  1.10745749782E+00  1.12982962330E+00  1.15265369569E+00  1.17593884493E+00
  1.19969438539E+00  1.22392981960E+00  1.24865484205E+00  1.27387934309E+00
  1.29961341286E+00  1.32586734531E+00  1.35265164239E+00  1.37997701815E+00
  1.40785440312E+00  1.43629494863E+00  1.46531003127E+00  1.49491125745E+00
  1.52511046807E+00  1.55591974322E+00  1.58735140700E+00  1.61941803252E+00
  1.65213244684E+00  1.68550773617E+00  1.71955725106E+00  1.75429461179E+00
  1.78973371375E+00  1.82588873306E+00  1.86277413220E+00  1.90040466584E+00
  1.93879538668E+00  1.97796165153E+00  2.01791912742E+00
  </PP_RAB>
</PP_MESH>


<PP_NLCC>
  5.01283376027E-03  5.01283375567E-03  5.01283375088E-03  5.01283374589E-03
  5.01283374071E-03  5.01283373531E-03  5.01283372969E-03  5.01283372384E-03
  5.01283371775E-03  5.01283371142E-03  5.01283370482E-03  5.01283369796E-03
  5.01283369081E-03  5.01283368338E-03  5.01283367564E-03  5.01283366758E-03
  5.01283365920E-03  5.01283365048E-03  5.01283364139E-03  5.01283363194E-03
  5.01283362210E-03  5.01283361186E-03  5.01283360121E-03  5.01283359011E-03
  5.01283357857E-03  5.01283356655E-03  5.01283355405E-03  5.01283354103E-03
  5.01283352748E-03  5.01283351338E-03  5.01283349870E-03  5.01283348343E-03
  5.01283346753E-03  5.01283345098E-03  5.01283343376E-03  5.01283341583E-03
  5.01283339718E-03  5.01283337776E-03  5.01283335755E-03  5.01283333651E-03
  5.01283331461E-03  5.01283329183E-03  5.01283326811E-03  5.01283324342E-03
  5.01283321773E-03  5.01283319098E-03  5.01283316315E-03  5.01283313418E-03
  5.01283310403E-03  5.01283307265E-03  5.01283303998E-03  5.01283300599E-03
  5.01283297060E-03  5.01283293378E-03  5.01283289545E-03  5.01283285555E-03
  5.01283281403E-03  5.01283277081E-03  5.01283272583E-03  5.01283267901E-03
  5.01283263028E-03  5.01283257957E-03  5.01283252678E-03  5.01283247184E-03
  5.01283241466E-03  5.01283235514E-03  5.01283229320E-03  5.01283222872E-03
  5.01283216162E-03  5.01283209177E-03  5.01283201908E-03  5.01283194342E-03
  5.01283186467E-03  5.01283178271E-03  5.01283169741E-03  5.01283160862E-03
  5.01283151621E-03  5.01283142002E-03  5.01283131992E-03  5.01283121572E-03
  5.01283110728E-03  5.01283099440E-03  5.01283087693E-03  5.01283075465E-03
  5.01283062739E-03  5.01283049494E-03  5.01283035707E-03  5.01283021359E-03
  5.01283006424E-03  5.01282990881E-03  5.01282974702E-03  5.01282957864E-03
  5.01282940338E-03  5.01282922097E-03  5.01282903112E-03  5.01282883352E-03
  5.01282862785E-03  5.01282841380E-03  5.01282819100E-03  5.01282795911E-03
  5.01282771776E-03  5.01282746656E-03  5.01282720511E-03  5.01282693299E-03
  5.01282664976E-03  5.01282635498E-03  5.01282604816E-03  5.01282572882E-03
  5.01282539645E-03  5.01282505052E-03  5.01282469047E-03  5.01282431572E-03