<UPF version="2.0.1">
   <PP_INFO>
         UPF file from ATOMPAW code with following input
           O  8
           GGA-PBESOL     loggrid 2001
           2 2 0 0 0 0
           2 1 4
           0 0 0
           c
           v
           v
           1
           1.2  1.0   1.2   1.2
           y
           12
           n
           y
           12
           n
           MODRRKJ VANDERBILTORTHO     BESSELSHAPE
           2 0   MTROULLIER
           1.20
           1.20
           1.20
           1.20
  </PP_INFO>
  <!--                               -->
  <!-- END OF HUMAN READABLE SECTION -->
  <PP_HEADER generated="Generated using ATOMPAW code"
             author="   "
             date=" 11/15/2018, 16:21:11.942"
             element="O "
             pseudo_type="PAW"
             relativistic="no"
             is_ultrasoft="T"
             is_paw="T"
             is_coulomb="F"
             has_so="F"
             has_wfc="T"
             has_gipaw="T"
             paw_as_gipaw="T"
             core_correction="T"
             functional="SLA PW PSX PSC"
             z_valence=" 6.000"
             l_max="1"
             l_max_rho="2"
             mesh_size="  2000"
             number_of_wfc="     4"
             number_of_proj=" 4"
                                    /> 
<PP_MESH dx=" 1.2500000000000E-02" mesh="   943" xmin="-7.0000000000000E+00" zmesh=" 8.0000000000000E+00">
 <PP_R type="real" size="   943" columns="3">
  1.13985245694314530E-04  1.15419003583627780E-04  1.16870795927072769E-04
  1.18340849570156746E-04  1.19829394211752482E-04  1.21336662439988611E-04
  1.22862889768592332E-04  1.24408314673688913E-04  1.25973178631063807E-04
  1.27557726153894324E-04  1.29162204830954628E-04  1.30786865365302316E-04
  1.32431961613451268E-04  1.34097750625037103E-04  1.35784492682982234E-04
  1.37492451344164778E-04  1.39221893480600406E-04  1.40973089321141541E-04
  1.42746312493700938E-04  1.44541840068007220E-04  1.46359952598896804E-04
  1.48200934170151605E-04  1.50065072438887605E-04  1.51952658680501836E-04
  1.53863987834185125E-04  1.55799358549006190E-04  1.57759073230576813E-04
  1.59743438088303053E-04  1.61752763183231000E-04  1.63787362476495009E-04
  1.65847553878373938E-04  1.67933659297965851E-04  1.70046004693486733E-04
  1.72184920123202135E-04  1.74350739796999847E-04  1.76543802128610204E-04
  1.78764449788484302E-04  1.81013029757336945E-04  1.83289893380362878E-04
  1.85595396422135855E-04  1.87929899122196546E-04  1.90293766251341446E-04
  1.92687367168618785E-04  1.95111075879041531E-04  1.97565271092027132E-04
  2.00050336280570539E-04  2.02566659741163337E-04  2.05114634654465756E-04
  2.07694659146741739E-04  2.10307136352067648E-04  2.12952474475321747E-04
  2.15631086855967794E-04  2.18343392032639959E-04  2.21089813808540085E-04
  2.23870781317658720E-04  2.26686729091826901E-04  2.29538097128613390E-04
  2.32425330960075126E-04  2.35348881722372168E-04  2.38309206226259564E-04
  2.41306767028463663E-04  2.44342032503958387E-04  2.47415476919149587E-04
  2.50527580505979883E-04  2.53678829536966753E-04  2.56869716401182365E-04
  2.60100739681191169E-04  2.63372404230954264E-04  2.66685221254713510E-04
  2.70039708386869313E-04  2.73436389772860637E-04  2.76875796151064611E-04
  2.80358464935725419E-04  2.83884940300925862E-04  2.87455773265617002E-04
  2.91071521779714222E-04  2.94732750811279112E-04  2.98440032434796679E-04
  3.02193945920562932E-04  3.05995077825197879E-04  3.09844022083294811E-04
  3.13741380100224817E-04  3.17687760846107291E-04  3.21683780950962497E-04
  3.25730064801062289E-04  3.29827244636490195E-04  3.33975960649931321E-04
  3.38176861086703334E-04  3.42430602346046047E-04  3.46737849083686076E-04
  3.51099274315689095E-04  3.55515559523620944E-04  3.59987394761030377E-04
  3.64515478761270959E-04  3.69100519046680826E-04  3.73743232039132540E-04
  3.78444343171976917E-04  3.83204587003392887E-04  3.88024707331163581E-04
  3.92905457308897544E-04  3.97847599563708361E-04  4.02851906315378292E-04
  4.07919159497018534E-04  4.13050150877247745E-04  4.18245682183909003E-04
  4.23506565229338954E-04  4.28833622037216812E-04  4.34227684971006701E-04
  4.39689596864016054E-04  4.45220211151091210E-04  4.50820392001966312E-04
  4.56491014456292938E-04  4.62232964560366504E-04  4.68047139505572540E-04
  4.73934447768575981E-04  4.79895809253270446E-04  4.85932155434516287E-04
  4.92044429503685405E-04  4.98233586516036312E-04  5.04500593539944798E-04
  5.10846429808008325E-04  5.17272086870054597E-04  5.23778568748072427E-04
  5.30366892093092537E-04  5.37038086344042475E-04  5.43793193888596140E-04
  5.50633270226050762E-04  5.57559384132250212E-04  5.64572617826583243E-04
  5.71674067141084131E-04  5.78864841691655724E-04  5.86146065051451376E-04
  5.93518874926434706E-04  6.00984423333148204E-04  6.08543876778720391E-04
  6.16198416443131483E-04  6.23949238363777120E-04  6.31797553622351761E-04
  6.39744588534081420E-04  6.47791584839340576E-04  6.55939799897673078E-04
  6.64190506884259442E-04  6.72544994988852557E-04  6.81004569617215619E-04
  6.89570552595096444E-04  6.98244282374762453E-04  7.07027114244138501E-04
  7.15920420538573138E-04  7.24925590855267669E-04  7.34044032270406502E-04
  7.43277169559011775E-04  7.52626445417569853E-04  7.62093320689454738E-04
  7.71679274593187648E-04  7.81385804953570163E-04  7.91214428435718371E-04
  8.01166680782047888E-04  8.11244117052235879E-04  8.21448311866201605E-04
  8.31780859650146703E-04  8.42243374885683375E-04  8.52837492362103515E-04
  8.63564867431816522E-04  8.74427176269001343E-04  8.85426116131515675E-04
  8.96563405626087367E-04  9.07840784976861434E-04  9.19260016297304521E-04
  9.30822883865542266E-04  9.42531194403159510E-04  9.54386777357495207E-04
  9.66391485187508806E-04  9.78547193653221681E-04  9.90855802108811783E-04
  1.00331923379939512E-03  1.01593943616152638E-03  1.02871838112750377E-03
  1.04165806543347612E-03  1.05476051093144133E-03  1.06802776490516832E-03
  1.08146190039007926E-03  1.09506501649717851E-03  1.10883923874103229E-03
  1.12278671937188950E-03  1.13690963771197803E-03  1.15121020049601753E-03
  1.16569064221604081E-03  1.18035322547052645E-03  1.19520024131793807E-03
  1.21023400963471157E-03  1.22545687947772848E-03  1.24087122945137646E-03
  1.25647946807919825E-03  1.27228403418023356E-03  1.28828739725009365E-03
  1.30449205784681304E-03  1.32090054798158184E-03  1.33751543151436596E-03
  1.35433930455451895E-03  1.37137479586643598E-03  1.38862456728028826E-03
  1.40609131410795811E-03  1.42377776556417215E-03  1.44168668519295269E-03
  1.45982087129943160E-03  1.47818315738707721E-03  1.49677641260045273E-03
  1.51560354217351238E-03  1.53466748788355450E-03  1.55397122851088656E-03
  1.57351778030424979E-03  1.59331019745213355E-03  1.61335157255998408E-03
  1.63364503713343497E-03  1.65419376206761754E-03  1.67500095814260351E-03
  1.69606987652511673E-03  1.71740380927651792E-03  1.73900608986720241E-03
  1.76088009369746693E-03  1.78302923862490694E-03  1.80545698549848489E-03
  1.82816683869927777E-03  1.85116234668804996E-03  1.87444710255971463E-03
  1.89802474460474321E-03  1.92189895687767910E-03  1.94607346977276126E-03
  1.97055206060681078E-03  1.99533855420945278E-03  2.02043682352073426E-03
  2.04585079019630346E-03  2.07158442522015684E-03  2.09764174952511984E-03
  2.12402683462113544E-03  2.15074380323142288E-03  2.17779682993668932E-03
  2.20519014182739542E-03  2.23292801916425429E-03  2.26101479604703904E-03
  2.28945486109177233E-03  2.31825265811648560E-03  2.34741268683555122E-03
  2.37693950356278197E-03  2.40683772192336635E-03  2.43711201357474936E-03
  2.46776710893659764E-03  2.49880779792992875E-03  2.53023893072554891E-03
  2.56206541850190726E-03  2.59429223421246778E-03  2.62692441336275385E-03
  2.65996705479714692E-03  2.69342532149559636E-03  2.72730444138034661E-03
  2.76160970813280537E-03  2.79634648202070017E-03  2.83152019073562144E-03
  2.86713633024111630E-03  2.90320046563144691E-03  2.93971823200113837E-03
  2.97669533532548495E-03  3.01413755335210943E-03  3.05205073650375441E-03
  3.09044080879242481E-03  3.12931376874501848E-03  3.16867569034061814E-03
  3.20853272395955425E-03  3.24889109734441840E-03  3.28975711657316424E-03
  3.33113716704443565E-03  3.37303771447531068E-03  3.41546530591157116E-03
  3.45842657075069726E-03  3.50192822177772776E-03  3.54597705621413758E-03
  3.59057995677992915E-03  3.63574389276905951E-03  3.68147592113841123E-03
  3.72778318761046376E-03  3.77467292778981261E-03  3.82215246829376194E-03
  3.87022922789711154E-03  3.91891071869136104E-03  3.96820454725849408E-03
  4.01811841585950850E-03  4.06866012363792887E-03  4.11983756783842071E-03
  4.17165874504075995E-03  4.22413175240931964E-03  4.27726478895825400E-03
  4.33106615683262822E-03  4.38554426260562985E-03  4.44070761859212057E-03
  4.49656484417870848E-03  4.55312466717052930E-03  4.61039592515500186E-03
  4.66838756688270264E-03  4.72710865366563534E-03  4.78656836079308264E-03
  4.84677597896525109E-03  4.90774091574497709E-03  4.96947269702766471E-03
  5.03198096852973138E-03  5.09527549729577815E-03  5.15936617322469357E-03
  5.22426301061498961E-03  5.28997614972953958E-03  5.35651585838002337E-03
  5.42389253353129687E-03  5.49211670292592755E-03  5.56119902672919022E-03
  5.63115029919472772E-03  5.70198145035117569E-03  5.77370354771001518E-03
  5.84632779799487256E-03  5.91986554889261610E-03  5.99432829082643427E-03
  6.06972765875124672E-03  6.14607543397169796E-03  6.22338354598299306E-03
  6.30166407433492212E-03  6.38092925051930195E-03  6.46119145988117635E-03
  6.54246324355404769E-03  6.62475730041947510E-03  6.70808648909126688E-03
  6.79246382992468659E-03  6.87790250705090731E-03  6.96441587043704954E-03
  7.05201743797216878E-03  7.14072089757941154E-03  7.23054010935481051E-03
  7.32148910773294456E-03  7.41358210367984004E-03  7.50683348691349311E-03
  7.60125782815224658E-03  7.69686988139152949E-03  7.79368458620918227E-03
  7.89171707009979698E-03  7.99098265083844628E-03  8.09149683887406927E-03
  8.19327533975304501E-03  8.29633405657320515E-03  8.40068909246871956E-03
  8.50635675312627453E-03  8.61335354933282296E-03  8.72169619955545823E-03
  8.83140163255370300E-03  8.94248699002465203E-03  9.05496962928143204E-03
  9.16886712596526668E-03  9.28419727679173808E-03  9.40097810233155376E-03
  9.51922784982629083E-03  9.63896499603958921E-03  9.76020825014414610E-03
  9.88297655664508584E-03  1.00072890983400730E-02  1.01331652993166543E-02
  1.02606248279873500E-02  1.03896876001628204E-02  1.05203737821638003E-02
  1.06527037939721098E-02  1.07866983124213119E-02  1.09223782744275483E-02
  1.10597648802609142E-02  1.11988795968580891E-02  1.13397441611765692E-02
  1.14823805835911116E-02  1.16268111513329366E-02  1.17730584319720860E-02
  1.19211452769437069E-02  1.20710948251186081E-02  1.22229305064187558E-02
  1.23766760454782875E-02  1.25323554653504685E-02  1.26899930912613857E-02
  1.28496135544108048E-02  1.30112417958208309E-02  1.31749030702330416E-02
  1.33406229500545263E-02  1.35084273293536641E-02  1.36783424279061233E-02
  1.38503947952917459E-02  1.40246113150429667E-02  1.42010192088454709E-02
  1.43796460407915536E-02  1.45605197216871277E-02  1.47436685134128224E-02
  1.49291210333399524E-02  1.51169062588020868E-02  1.53070535316227434E-02
  1.54995925627001603E-02  1.56945534366496643E-02  1.58919666165044486E-02
  1.60918629484755292E-02  1.62942736667714624E-02  1.64992303984787848E-02
  1.67067651685038135E-02  1.69169104045765878E-02  1.71296989423178093E-02
  1.73451640303694116E-02  1.75633393355897720E-02  1.77842589483142091E-02
  1.80079573876816591E-02  1.82344696070284272E-02  1.84638309993496071E-02
  1.86960774028293933E-02  1.89312451064408346E-02  1.91693708556160587E-02
  1.94104918579878771E-02  1.96546457892034579E-02  1.99018707988112935E-02
  2.01522055162221096E-02  2.04056890567448010E-02  2.06623610276983199E-02
  2.09222615346003199E-02  2.11854311874337745E-02  2.14519111069923565E-02
  2.17217429313056425E-02  2.19949688221451889E-02  2.22716314716123118E-02
  2.25517741088088579E-02  2.28354405065918468E-02  2.31226749884130348E-02
  2.34135224352446311E-02  2.37080282925919150E-02  2.40062385775942772E-02
  2.43081998862154577E-02  2.46139594005242573E-02  2.49235648960668965E-02
  2.52370647493319333E-02  2.55545079453092620E-02  2.58759440851440981E-02
  2.62014233938872264E-02  2.65309967283428871E-02  2.68647155850150823E-02
  2.72026321081541254E-02  2.75447990979042490E-02  2.78912700185537273E-02
  2.82420990068888607E-02  2.85973408806528134E-02  2.89570511471111125E-02
  2.93212860117247273E-02  2.96901023869322669E-02  3.00635579010427728E-02
  3.04417109072400993E-02  3.08246204927008251E-02  3.12123464878267150E-02
  3.16049494755933080E-02  3.20024908010162618E-02  3.24050325807364523E-02
  3.28126377127259256E-02  3.32253698861158450E-02  3.36432935911479825E-02
  3.40664741292515810E-02  3.44949776232466518E-02  3.49288710276759312E-02
  3.53682221392666307E-02  3.58130996075237615E-02  3.62635729454569219E-02
  3.67197125404416166E-02  3.71815896652175903E-02  3.76492764890252879E-02
  3.81228460888824103E-02  3.86023724610024890E-02  3.90879305323567350E-02
  3.95795961723816730E-02  4.00774462048338609E-02  4.05815584197937174E-02
  4.10920115858205218E-02  4.16088854622599577E-02  4.21322608117068106E-02
  4.26622194126242416E-02  4.31988440721218156E-02  4.37422186388944298E-02
  4.42924280163236039E-02  4.48495581757439726E-02  4.54136961698764358E-02
  4.59849301464302918E-02  4.65633493618766298E-02  4.71490441953946321E-02
  4.77421061629936389E-02  4.83426279318126886E-02  4.89507033345998738E-02
  4.95664273843741190E-02  5.01898962892708481E-02  5.08212074675749165E-02
  5.14604595629423456E-02  5.21077524598135486E-02  5.27631872990206932E-02
  5.34268664935908522E-02  5.40988937447484386E-02  5.47793740581186961E-02
  5.54684137601349839E-02  5.61661205146527093E-02  5.68726033397717115E-02
  5.75879726248707605E-02  5.83123401478560857E-02  5.90458190926268361E-02
  5.97885240667605164E-02  6.05405711194203291E-02  6.13020777594882951E-02
  6.20731629739262325E-02  6.28539472463676141E-02  6.36445525759436609E-02
  6.44451024963455382E-02  6.52557220951270472E-02  6.60765380332497126E-02
  6.69076785648737848E-02  6.77492735573984040E-02  6.86014545117533264E-02
  6.94643545829464609E-02  7.03381086008695172E-02  7.12228530913653762E-02
  7.21187262975608451E-02  7.30258682014670035E-02  7.39444205458519299E-02
  7.48745268563882210E-02  7.58163324640791780E-02  7.67699845279672388E-02
  7.77356320581275434E-02  7.87134259389512952E-02  7.97035189527217219E-02
  8.07060658034865069E-02  8.17212231412309253E-02  8.27491495863542786E-02
  8.37900057544549576E-02  8.48439542814268532E-02  8.59111598488715295E-02
  8.69917892098302642E-02  8.80860112148392077E-02  8.91939968383128612E-02
  9.03159192052590820E-02  9.14519536183302229E-02  9.26022775852147484E-02
  9.37670708463727576E-02  9.49465154031211150E-02  9.61407955460713837E-02
  9.73500978839256098E-02  9.85746113726345963E-02  9.98145273449221604E-02
  1.01070039540181608E-01  1.02341344134747811E-01  1.03628639772550046E-01
  1.04932127596150934E-01  1.06252011278174810E-01  1.07588497053132282E-01
  1.08941793749644814E-01  1.10312112823074432E-01  1.11699668388564474E-01
  1.13104677254494981E-01  1.14527358956359765E-01  1.15967935791069190E-01
  1.17426632851684476E-01  1.18903678062589266E-01  1.20399302215102769E-01
  1.21913739003541646E-01  1.23447225061735263E-01  1.25000000000000000E-01
  1.26572306442579330E-01  1.28164390065553663E-01  1.29776499635228193E-01
  1.31408887047003098E-01  1.33061807364732415E-01  1.34735518860578968E-01
  1.36430283055369000E-01  1.38146364759456020E-01  1.39884032114097667E-01
  1.41643556633353290E-01  1.43425213246509059E-01  1.45229280341035438E-01
  1.47056039806086392E-01  1.48905777076544871E-01  1.50778781177622584E-01
  1.52675344770021260E-01  1.54595764195660651E-01  1.56540339523983135E-01
  1.58509374598840042E-01  1.60503177085967674E-01  1.62522058521061413E-01
  1.64566334358452748E-01  1.66636324020400434E-01  1.68732350947000509E-01
  1.70854742646724539E-01  1.73003830747593956E-01  1.75179951048996724E-01
  1.77383443574157251E-01  1.79614652623265675E-01  1.81873926827275156E-01
  1.84161619202376975E-01  1.86478087205158849E-01  1.88823692788459174E-01
  1.91198802457922479E-01  1.93603787329266641E-01  1.96039023186271144E-01
  1.98504890539492995E-01  2.01001774685722973E-01  2.03530065768188884E-01
  2.06090158837516024E-01  2.08682453913455385E-01  2.11307356047386485E-01
  2.13965275385608167E-01  2.16656627233424548E-01  2.19381832120037312E-01
  2.22141315864254840E-01  2.24935509641026155E-01  2.27764850048813750E-01
  2.30629779177812633E-01  2.33530744679027791E-01  2.36468199834221265E-01
  2.39442603626737083E-01  2.42454420813219385E-01  2.45504121996231062E-01
  2.48592183697786490E-01  2.51719088433809635E-01  2.54885324789526968E-01
  2.58091387495810953E-01  2.61337777506482127E-01  2.64625002076584348E-01
  2.67953574841644948E-01  2.71324015897930371E-01  2.74736851883712885E-01
  2.78192616061558651E-01  2.81691848401651068E-01  2.85235095666163008E-01
  2.88822911494688084E-01  2.92455856490749011E-01  2.96134498309392702E-01
  2.99859411745887261E-01  3.03631178825536086E-01  3.07450388894618842E-01
  3.11317638712479028E-01  3.15233532544768713E-01  3.19198682257865851E-01
  3.23213707414480855E-01  3.27279235370462718E-01  3.31395901372825985E-01
  3.35564348659009026E-01  3.39785228557380636E-01  3.44059200589013403E-01
  3.48386932570731445E-01  3.52769100719462436E-01  3.57206389757895704E-01
  3.61699493021470142E-01  3.66249112566713109E-01  3.70855959280933567E-01
  3.75520752993304008E-01  3.80244222587333203E-01  3.85027106114753881E-01
  3.89870150910849422E-01  3.94774113711221120E-01  3.99739760770034314E-01
  4.04767867979745399E-01  4.09859220992334183E-01  4.15014615342068904E-01
  4.20234856569803805E-01  4.25520760348852223E-01  4.30873152612434640E-01
  4.36292869682730178E-01  4.41780758401559170E-01  4.47337676262697548E-01
  4.52964491545867598E-01  4.58662083452405833E-01  4.64431342242637990E-01
  4.70273169374989308E-01  4.76188477646832808E-01  4.82178191337121642E-01
  4.88243246350806848E-01  4.94384590365072152E-01  5.00603182977416128E-01
  5.06899995855584540E-01  5.13276012889401390E-01  5.19732230344501334E-01
  5.26269657017994996E-01  5.32889314396102765E-01  5.39592236813755566E-01
  5.46379471616219581E-01  5.53252079322742230E-01  5.60211133792258065E-01
  5.67257722391188435E-01  5.74392946163336249E-01  5.81617920001933575E-01
  5.88933772823843071E-01  5.96341647745950332E-01  6.03842702263785447E-01
  6.11438108432375782E-01  6.19129053049389144E-01  6.26916737840570337E-01
  6.34802379647510184E-01  6.42787210617786431E-01  6.50872478397481302E-01
  6.59059446326136222E-01  6.67349393634147470E-01  6.75743615642645845E-01
  6.84243423965900655E-01  6.92850146716253001E-01  7.01565128711644337E-01
  7.10389731685743486E-01  7.19325334500716340E-01  7.28373333362684949E-01
  7.37535142039877245E-01  7.46812192083540216E-01  7.56205933051618762E-01
  7.65717832735248294E-01  7.75349377388108940E-01  7.85102071958645786E-01
  7.94977440325228657E-01  8.04977025534257984E-01  8.15102390041264058E-01
  8.25355115955054286E-01  8.35736805284909012E-01  8.46249080190909164E-01
  8.56893583237397838E-01  8.67671977649629445E-01  8.78585947573662596E-01
  8.89637198339499613E-01  9.00827456727558151E-01  9.12158471238479596E-01
  9.23632012366331301E-01  9.35249872875260735E-01  9.47013868079606080E-01
  9.58925836127553444E-01  9.70987638288347221E-01  9.83201159243111467E-01
  9.95568307379347539E-01  1.00809101508910937E+00  1.02077123907095579E+00
  1.03361096063568425E+00  1.04661218601590811E+00  1.05977694667954769E+00
  1.07310729964723706E+00  1.08660532781375019E+00  1.10027314027345158E+00
  1.11411287264984216E+00  1.12812668742926636E+00  1.14231677429879097E+00
  1.15668535048836119E+00  1.17123466111724195E+00  1.18596697954481578E+00
  1.20088460772581396E+00  1.21598987656998592E+00  1.23128514630632258E+00
  1.24677280685184089E+00  1.26245527818500669E+00  1.27833501072387623E+00
  1.29441448570896189E+00  1.31069621559094629E+00  1.32718274442325135E+00
  1.34387664825954434E+00  1.36078053555626877E+00  1.37789704758020060E+00
  1.39522885882117054E+00  1.41277867740994867E+00  1.43054924554139018E+00
  1.44854333990292528E+00  1.46676377210840170E+00  1.48521338913742440E+00
  1.50389507378019238E+00  1.52281174508793415E+00  1.54196635882903332E+00
  1.56136190795085161E+00  1.58100142304740277E+00  1.60088797283288020E+00
  1.62102466462114170E+00  1.64141464481125365E+00  1.66206109937909852E+00
  1.68296725437521366E+00  1.70413637642884552E+00  1.72557177325838684E+00
  1.74727679418820592E+00  1.76925483067197598E+00  1.79150931682261860E+00
  1.81404372994886565E+00  1.83686159109861769E+00  1.85996646560910617E+00
  1.88336196366397401E+00  1.90705174085739748E+00  1.93103949876525327E+00
  1.95532898552352141E+00  1.97992399641392902E+00  2.00482837445695949E+00
  2.03004601101235727E+00  2.05558084638713279E+00  2.08143687045126802E+00
  2.10761812326113107E+00  2.13412869569073260E+00  2.16097273007095803E+00
  2.18815442083678624E+00  2.21567801518270535E+00  2.24354781372633205E+00
  2.27176817118038343E+00  2.30034349703313401E+00  2.32927825623737705E+00
  2.35857696990811050E+00  2.38824421602895853E+00  2.41828463016747719E+00
  2.44870290619950248E+00  2.47950379704254154E+00  2.51069211539845849E+00
  2.54227273450545344E+00  2.57425058889950442E+00  2.60663067518542935E+00
  2.63941805281757835E+00  2.67261784489041787E+00  2.70623523893900941E+00
  2.74027548774955898E+00  2.77474391018020805E+00  2.80964589199207815E+00
  2.84498688669084121E+00  2.88077241637882508E+00  2.91700807261784023E+00
  2.95369951730290614E+00  2.99085248354689393E+00  3.02847277657637237E+00
  3.06656627463867171E+00  3.10513892992035601E+00  3.14419676947729965E+00
  3.18374589617638692E+00  3.22379248964913279E+00  3.26434280725724912E+00
  3.30540318507035025E+00  3.34698003885601958E+00  3.38907986508223846E+00
  3.43170924193251237E+00  3.47487483033371136E+00  3.51858337499683183E+00
  3.56284170547091472E+00  3.60765673721012936E+00  3.65303547265436768E+00
  3.69898500232337257E+00  3.74551250592462814E+00  3.79262525347524493E+00
  3.84033060643786683E+00  3.88863601887095767E+00  3.93754903859349570E+00
  3.98707730836431251E+00  4.03722856707634037E+00  4.08801065096577165E+00
  4.13943149483653894E+00  4.19149913330012058E+00  4.24422170203094407E+00
  4.29760743903765352E+00  4.35166468595025613E+00  4.40640188932356747E+00
  4.46182760195698869E+00  4.51795048423086687E+00  4.57477930545975475E+00
  4.63232294526257427E+00  4.69059039495012442E+00  4.74959075892997529E+00
  4.80933325612901719E+00  4.86982722143400260E+00  4.93108210715006923E+00
  4.99310748447774166E+00  5.05591304500842931E+00  5.11950860223872528E+00
  5.18390409310385181E+00  5.24910957953025115E+00  5.31513525000784792E+00
  5.38199142118199525E+00  5.44968853946543863E+00  5.51823718267066088E+00
  5.58764806166260719E+00  5.65793202203234546E+00  5.72910004579168941E+00
  5.80116325308912195E+00  5.87413290394741860E+00  5.94802040002296284E+00
  6.02283728638735205E+00  6.09859525333130748E+00  6.17530613819127350E+00
  6.25298192719910162E+00  6.33163475735483328E+00  6.41127691832321300E+00
  6.49192085435393640E+00  6.57357916622605654E+00  6.65626461321696183E+00
  6.73999011509594581E+00  6.82476875414302953E+00  6.91061377719306069E+00
  6.99753859770551934E+00  7.08555679786048387E+00  7.17468213068077976E+00
  7.26492852218099827E+00  7.35631007354343236E+00  7.44884106332137375E+00
  7.54253594967025709E+00  7.63740937260667163E+00  7.73347615629598550E+00
  7.83075131136861469E+00  7.92925003726541799E+00  8.02898772461274390E+00
  8.12997995762712655E+00  8.23224251655046224E+00  8.33579138011565135E+00
  8.44064272804326876E+00  8.54681294356977794E+00  8.65431861600733043E+00
  8.76317654333598206E+00  8.87340373482836675E+00  8.98501741370738394E+00
  9.09803501983746798E+00  9.21247421244948050E+00  9.32835287290011372E+00
  9.44568910746583512E+00  9.56450125017198616E+00  9.68480786565762131E+00
  9.80662775207614423E+00  9.92997994403266659E+00  1.00548837155581641E+01
  1.01813585831210176E+01  1.03094243086766397E+01  1.04391009027551593E+01
  1.05704086275882503E+01  1.07033680002750824E+01  1.08379997959881127E+01
  1.09743250512193651E+01  1.11123650670672909E+01  1.12521414125652264E+01
  1.13936759280515556E+01  1.15369907285822357E+01  1.16821082073864684E+01
  1.18290510393655186E+01  1.19778421846358594E+01  1.21285048921166805E+01
  1.22810627031625081E+01  1.24355394552417433E+01  1.25919592856611402E+01
  1.27503466353374613E+01  1.29107262526163566E+01  1.30731231971392781E+01
  1.32375628437592532E+01  1.34040708865055702E+01  1.35726733425986996E+01
  1.37433965565154512E+01  1.39162672041052939E+01  1.40913122967586659E+01
  1.42685591856273799E+01  1.44480355658984578E+01  1.46297694811214889E+01
  1.48137893275904169E+01
                               </PP_R> 
 <PP_RAB type="real" size="   943" columns="3">
  1.42481557117893163E-06  1.44273754479534742E-06  1.46088494908840969E-06
  1.47926061962695933E-06  1.49786742764690616E-06  1.51670828049985764E-06
  1.53578612210740423E-06  1.55510393342111145E-06  1.57466473288829775E-06
  1.59447157692367922E-06  1.61452756038693289E-06  1.63483581706627907E-06
  1.65539952016814093E-06  1.67622188281296391E-06  1.69730615853727801E-06
  1.71865564180205981E-06  1.74027366850750516E-06  1.76216361651426926E-06
  1.78432890617126185E-06  1.80677300085009042E-06  1.82949940748621013E-06
  1.85251167712689523E-06  1.87581340548609519E-06  1.89940823350627295E-06
  1.92329984792731415E-06  1.94749198186257729E-06  1.97198841538221042E-06
  1.99679297610378824E-06  2.02190953979038767E-06  2.04734203095618761E-06
  2.07309442347967422E-06  2.09917074122457322E-06  2.12557505866858425E-06
  2.15231150154002694E-06  2.17938424746249817E-06  2.20679752660762746E-06
  2.23455562235605403E-06  2.26266287196671198E-06  2.29112366725453632E-06
  2.31994245527669852E-06  2.34912373902745691E-06  2.37867207814176825E-06
  2.40859208960773481E-06  2.43888844848801939E-06  2.46956588865033916E-06
  2.50062920350713174E-06  2.53208324676454197E-06  2.56393293318082211E-06
  2.59618323933427191E-06  2.62883920440084569E-06  2.66190593094152201E-06
  2.69538858569959760E-06  2.72929240040799949E-06  2.76362267260675106E-06
  2.79838476647073409E-06  2.83358411364783635E-06  2.86922621410766763E-06
  2.90531663700093941E-06  2.94186102152965235E-06  2.97886507782824473E-06
  3.01633458785579595E-06  3.05427540629948000E-06  3.09269346148936984E-06
  3.13159475632474888E-06  3.17098536921208475E-06  3.21087145501477981E-06
  3.25125924601488986E-06  3.29215505288692863E-06  3.33356526568391922E-06
  3.37549635483586675E-06  3.41795487216075830E-06  3.46094745188830764E-06
  3.50448081169656774E-06  3.54856175376157353E-06  3.59319716582021287E-06
  3.63839402224642803E-06  3.68415938514098924E-06  3.73050040543495882E-06
  3.77742432400703691E-06  3.82493847281497382E-06  3.87305027604118514E-06
  3.92176725125281073E-06  3.97109701057634148E-06  4.02104726188703105E-06
  4.07162581001327844E-06  4.12284055795612761E-06  4.17469950812414151E-06
  4.22721076358379218E-06  4.28038252932557593E-06  4.33422311354607646E-06
  4.38874092894611403E-06  4.44394449404526181E-06  4.49984243451288022E-06
  4.55644348451588699E-06  4.61375648808351100E-06  4.67179040048915709E-06
  4.73055428964971213E-06  4.79005733754241176E-06  4.85030884163954477E-06
  4.91131821636121964E-06  4.97309499454635502E-06  5.03564882894222865E-06
  5.09898949371273218E-06  5.16312688596559699E-06  5.22807102729886288E-06
  5.29383206536673709E-06  5.36042027546521032E-06  5.42784606213758394E-06
  5.49611996080020068E-06  5.56525263938864046E-06  5.63525490002457957E-06
  5.70613768070366223E-06  5.77791205700458180E-06  5.85058924381965725E-06
  5.92418059710720027E-06  5.99869761566588074E-06  6.07415194293145392E-06
  6.15055536879606773E-06  6.22791983145045441E-06  6.30625741924931048E-06
  6.38558037260010406E-06  6.46590108587568280E-06  6.54723210935090550E-06
  6.62958615116365722E-06  6.71297607930053161E-06  6.79741492360745175E-06
  6.88291587782563487E-06  6.96949230165312832E-06  7.05715772283229088E-06
  7.14592583926355163E-06  7.23581052114569706E-06  7.32682581314314288E-06
  7.41898593658043382E-06  7.51230529166435322E-06  7.60679845973400506E-06
  7.70248020553914455E-06  7.79936547954721468E-06  7.89746942027939701E-06
  7.99680735667601809E-06  8.09739481049175788E-06  8.19924749872091347E-06
  8.30238133605324404E-06  8.40681243736065798E-06  8.51255712021519626E-06
  8.61963190743870657E-06  8.72805352968453032E-06  8.83783892805173092E-06
  8.94900525673216491E-06  9.06156988569084654E-06  9.17555040338008195E-06
  9.29096461948764719E-06  9.40783056771962350E-06  9.52616650861818456E-06
  9.64599093241484559E-06  9.76732256191962839E-06  9.89018035544648099E-06
  1.00145835097755993E-05  1.01405514631529485E-05  1.02681038983275201E-05
  1.03972607456268338E-05  1.05280421860710425E-05  1.06604686545262953E-05
  1.07945608428977075E-05  1.09303397033625181E-05  1.10678264516439463E-05
  1.12070425703260921E-05  1.13480098122107689E-05  1.14907502037163079E-05
  1.16352860483192793E-05  1.17816399300394952E-05  1.19298347169686904E-05
  1.20798935648438601E-05  1.22318399206652710E-05  1.23856975263601486E-05
  1.25414904224924390E-05  1.26992429520190797E-05  1.28589797640937978E-05
  1.30207258179184519E-05  1.31845063866430172E-05  1.33503470613146044E-05