<PP_INFO>
Generated using "atomic" code by A. Dal Corso  (Quantum ESPRESSO distributi
Author: D.C.   Generation date: 29May2010                                  
O                                                                          
    1        The Pseudo was generated with a Scalar-Relativistic Calculation
    2 1.3000000E+00    L component and cutoff radius for Local Potential
nl pn  l   occ               Rcut            Rcut US             E pseu
2S  1  0  2.00      1.00000000000      1.30000000000     -1.76114880654
2S  1  0  0.00      1.00000000000      1.30000000000      0.50000000000
2P  2  1  4.00      1.00000000000      1.30000000000     -0.66376026324
2P  2  1  0.00      1.00000000000      1.30000000000      0.50000000000
3D  3  2 -2.00      1.30000000000      1.30000000000      0.15000000000
</PP_INFO>


<PP_HEADER>
   0                   Version Number
   O                   Element
   US                  Ultrasoft pseudopotential
    T                  Nonlinear Core Correction
 SLA  PW   PBX  PBC    PBE    Exchange-Correlation functional
    6.00000000000      Z valence
  -31.53762325955      Total energy
     50.962    712.509 Suggested cutoff for wfc and rho
    2                  Max angular momentum component
  685                  Number of points in mesh
    4    4             Number of Wavefunctions, Number of Projectors
 Wavefunctions         nl  l   occ
                       2S  0  2.00
                       3S  0  0.00
                       2P  1  4.00
                       3P  1  0.00
</PP_HEADER>


<PP_MESH>
  <PP_R>
  1.13985245694E-04  1.16287900401E-04  1.18637071818E-04  1.21033699645E-04
  1.23478742566E-04  1.25973178631E-04  1.28518005647E-04  1.31114241578E-04
  1.33762924955E-04  1.36465115285E-04  1.39221893481E-04  1.42034362290E-04
  1.44903646738E-04  1.47830894577E-04  1.50817276745E-04  1.53863987834E-04
  1.56972246570E-04  1.60143296298E-04  1.63378405480E-04  1.66678868202E-04
  1.70046004693E-04  1.73481161854E-04  1.76985713793E-04  1.80561062378E-04
  1.84208637794E-04  1.87929899122E-04  1.91726334916E-04  1.95599463799E-04
  1.99550835077E-04  2.03582029349E-04  2.07694659147E-04  2.11890369578E-04
  2.16170838982E-04  2.20537779604E-04  2.24992938279E-04  2.29538097129E-04
  2.34175074278E-04  2.38905724579E-04  2.43731940356E-04  2.48655652158E-04
  2.53678829537E-04  2.58803481830E-04  2.64031658967E-04  2.69365452287E-04
  2.74806995380E-04  2.80358464936E-04  2.86022081615E-04  2.91800110941E-04
  2.97694864202E-04  3.03708699378E-04  3.09844022083E-04  3.16103286529E-04
  3.22488996503E-04  3.29003706377E-04  3.35650022119E-04  3.42430602346E-04
  3.49348159380E-04  3.56405460335E-04  3.63605328227E-04  3.70950643098E-04
  3.78444343172E-04  3.86089426030E-04  3.93888949806E-04  4.01846034413E-04
  4.09963862793E-04  4.18245682184E-04  4.26694805424E-04  4.35314612276E-04
  4.44108550778E-04  4.53080138621E-04  4.62232964560E-04  4.71570689849E-04
  4.81097049701E-04  4.90815854788E-04  5.00730992761E-04  5.10846429808E-04
  5.21166212238E-04  5.31694468102E-04  5.42435408842E-04  5.53393330979E-04
  5.64572617827E-04  5.75977741249E-04  5.87613263448E-04  5.99483838787E-04
  6.11594215655E-04  6.23949238364E-04  6.36553849087E-04  6.49413089838E-04
  6.62532104484E-04  6.75916140805E-04  6.89570552595E-04  7.03500801801E-04
  7.17712460707E-04  7.32211214167E-04  7.47002861876E-04  7.62093320689E-04
  7.77488626993E-04  7.93194939114E-04  8.09218539786E-04  8.25565838664E-04
  8.42243374886E-04  8.59257819687E-04  8.76615979073E-04  8.94324796539E-04
  9.12391355849E-04  9.30822883866E-04  9.49626753447E-04  9.68810486392E-04
  9.88381756449E-04  1.00834839239E-03  1.02871838113E-03  1.04949987094E-03
  1.07070117469E-03  1.09233077318E-03  1.11439731855E-03  1.13690963771E-03
  1.15987673588E-03  1.18330780021E-03  1.20721220344E-03  1.23159950765E-03
  1.25647946808E-03  1.28186203705E-03  1.30775736793E-03  1.33417581919E-03
  1.36112795857E-03  1.38862456728E-03  1.41667664433E-03  1.44529541093E-03
  1.47449231497E-03  1.50427903559E-03  1.53466748788E-03  1.56566982763E-03
  1.59729845619E-03  1.62956602543E-03  1.66248544281E-03  1.69606987653E-03
  1.73033276081E-03  1.76528780127E-03  1.80094898039E-03  1.83733056311E-03
  1.87444710256E-03  1.91231344584E-03  1.95094474000E-03  1.99035643806E-03
  2.03056430524E-03  2.07158442522E-03  2.11343320659E-03  2.15612738942E-03
  2.19968405195E-03  2.24412061744E-03  2.28945486109E-03  2.33570491722E-03
  2.38288928645E-03  2.43102684317E-03  2.48013684305E-03  2.53023893073E-03
  2.58135314771E-03  2.63349994038E-03  2.68670016814E-03  2.74097511178E-03
  2.79634648202E-03  2.85283642814E-03  2.91046754686E-03  2.96926289141E-03
  3.02924598071E-03  3.09044080879E-03  3.15287185440E-03  3.21656409079E-03
  3.28154299571E-03  3.34783456158E-03  3.41546530591E-03  3.48446228191E-03
  3.55485308927E-03  3.62666588527E-03  3.69992939599E-03  3.77467292779E-03
  3.85092637909E-03  3.92872025230E-03  4.00808566598E-03  4.08905436738E-03
  4.17165874504E-03  4.25593184182E-03  4.34190736809E-03  4.42961971520E-03
  4.51910396926E-03  4.61039592516E-03  4.70353210090E-03  4.79854975219E-03
  4.89548688737E-03  4.99438228258E-03  5.09527549730E-03  5.19820689015E-03
  5.30321763506E-03  5.41034973775E-03  5.51964605246E-03  5.63115029919E-03
  5.74490708113E-03  5.86096190250E-03  5.97936118677E-03  6.10015229525E-03
  6.22338354598E-03  6.34910423311E-03  6.47736464659E-03  6.60821609229E-03
  6.74171091254E-03  6.87790250705E-03  7.01684535427E-03  7.15859503318E-03
  7.30320824556E-03  7.45074283862E-03  7.60125782815E-03  7.75481342217E-03
  7.91147104496E-03  8.07129336165E-03  8.23434430330E-03  8.40068909247E-03
  8.57039426928E-03  8.74352771808E-03  8.92015869455E-03  9.10035785343E-03
  9.28419727679E-03  9.47175050286E-03  9.66309255541E-03  9.85829997383E-03
  1.00574508437E-02  1.02606248280E-02  1.04679031990E-02  1.06793688709E-02
  1.08951064327E-02  1.11152021824E-02  1.13397441612E-02  1.15688221888E-02
  1.18025278995E-02  1.20409547788E-02  1.22841982005E-02  1.25323554654E-02
  1.27855258394E-02  1.30438105943E-02  1.33073130474E-02  1.35761386031E-02
  1.38503947953E-02  1.41301913301E-02  1.44156401298E-02  1.47068553777E-02
  1.50039535639E-02  1.53070535316E-02  1.56162765248E-02  1.59317462369E-02
  1.62535888598E-02  1.65819331350E-02  1.69169104046E-02  1.72586546639E-02
  1.76073026151E-02  1.79629937222E-02  1.83258702663E-02  1.86960774028E-02
  1.90737632196E-02  1.94590787960E-02  1.98521782634E-02  2.02532188667E-02
  2.06623610277E-02  2.10797684086E-02  2.15056079779E-02  2.19400500771E-02
  2.23832684889E-02  2.28354405066E-02  2.32967470049E-02  2.37673725127E-02
  2.42475052864E-02  2.47373373855E-02  2.52370647493E-02  2.57468872756E-02
  2.62670089001E-02  2.67976376784E-02  2.73389858690E-02  2.78912700186E-02
  2.84547110480E-02  2.90295343412E-02  2.96159698353E-02  3.02142521121E-02
  3.08246204927E-02  3.14473191325E-02  3.20825971192E-02  3.27307085725E-02
  3.33919127457E-02  3.40664741293E-02  3.47546625566E-02  3.54567533125E-02
  3.61730272424E-02  3.69037708655E-02  3.76492764890E-02  3.84098423251E-02
  3.91857726103E-02  3.99773777270E-02  4.07849743279E-02  4.16088854623E-02
  4.24494407056E-02  4.33069762913E-02  4.41818352448E-02  4.50743675216E-02
  4.59849301464E-02  4.69138873564E-02  4.78616107469E-02  4.88284794198E-02
  4.98148801356E-02  5.08212074676E-02  5.18478639602E-02  5.28952602897E-02
  5.39638154286E-02  5.50539568132E-02  5.61661205147E-02  5.73007514132E-02
  5.84583033762E-02  5.96392394401E-02  6.08440319950E-02  6.20731629739E-02
  6.33271240457E-02  6.46064168115E-02  6.59115530054E-02  6.72430546993E-02
  6.86014545118E-02  6.99872958207E-02  7.14011329811E-02  7.28435315467E-02
  7.43150684963E-02  7.58163324641E-02  7.73479239758E-02  7.89104556884E-02
  8.05045526354E-02  8.21308524769E-02  8.37900057545E-02  8.54826761515E-02
  8.72095407589E-02  8.89712903453E-02  9.07686296342E-02  9.26022775852E-02
  9.44729676820E-02  9.63814482254E-02  9.83284826333E-02  1.00314849745E-01
  1.02341344135E-01  1.04408776426E-01  1.06517973621E-01  1.08669779425E-01
  1.10865054590E-01  1.13104677254E-01  1.15389543298E-01  1.17720566698E-01
  1.20098679894E-01  1.22524834163E-01  1.25000000000E-01  1.27525167503E-01
  1.30101346774E-01  1.32729568318E-01  1.35410883459E-01  1.38146364759E-01
  1.40937106447E-01  1.43784224857E-01  1.46688858874E-01  1.49652170390E-01
  1.52675344770E-01  1.55759591323E-01  1.58906143790E-01  1.62116260833E-01
  1.65391226542E-01  1.68732350947E-01  1.72140970542E-01  1.75618448820E-01
  1.79166176820E-01  1.82785573679E-01  1.86478087205E-01  1.90245194452E-01
  1.94088402314E-01  1.98009248124E-01  2.02009300274E-01  2.06090158838E-01
  2.10253456212E-01  2.14500857773E-01  2.18834062537E-01  2.23254803844E-01
  2.27764850049E-01  2.32366005231E-01  2.37060109913E-01  2.41849041800E-01
  2.46734716529E-01  2.51719088434E-01  2.56804151330E-01  2.61991939312E-01
  2.67284527562E-01  2.72684033187E-01  2.78192616062E-01  2.83812479692E-01
  2.89545872098E-01  2.95395086713E-01  3.01362463302E-01  3.07450388895E-01
  3.13661298742E-01  3.19997677291E-01  3.26462059178E-01  3.33057030241E-01
  3.39785228557E-01  3.46649345496E-01  3.53652126794E-01  3.60796373658E-01
  3.68084943883E-01  3.75520752993E-01  3.83106775412E-01  3.90846045648E-01
  3.98741659515E-01  4.06796775361E-01  4.15014615342E-01  4.23398466703E-01
  4.31951683095E-01  4.40677685921E-01  4.49579965696E-01  4.58662083452E-01
  4.67927672158E-01  4.77380438171E-01  4.87024162724E-01  4.96862703437E-01
  5.06899995856E-01  5.17140055031E-01  5.27586977125E-01  5.38244941043E-01
  5.49118210115E-01  5.60211133792E-01  5.71528149393E-01  5.83073783874E-01
  5.94852655642E-01  6.06869476405E-01  6.19129053049E-01  6.31636289570E-01
  6.44396189029E-01  6.57413855556E-01  6.70694496390E-01  6.84243423966E-01
  6.98066058035E-01  7.12167927834E-01  7.26554674300E-01  7.41232052324E-01
  7.56205933052E-01  7.71482306235E-01  7.87067282628E-01  8.02967096429E-01
  8.19188107774E-01  8.35736805285E-01  8.52619808661E-01  8.69843871330E-01
  8.87415883145E-01  9.05342873145E-01  9.23632012366E-01  9.42290616708E-01
  9.61326149860E-01  9.80746226290E-01  1.00055861429E+00  1.02077123907E+00
  1.04139218596E+00  1.06242970361E+00  1.08389220731E+00  1.10578828234E+00
  1.12812668743E+00  1.15091635824E+00  1.17416641093E+00  1.19788614585E+00
  1.22208505119E+00  1.24677280685E+00  1.27195928826E+00  1.29765457034E+00
  1.32386893155E+00  1.35061285799E+00  1.37789704758E+00  1.40573241436E+00
  1.43413009285E+00  1.46310144250E+00  1.49265805223E+00  1.52281174509E+00
  1.55357458295E+00  1.58495887135E+00  1.61697716444E+00  1.64964226996E+00
  1.68296725438E+00  1.71696544813E+00  1.75165045097E+00  1.78703613733E+00
  1.82313666199E+00  1.85996646561E+00  1.89754028062E+00  1.93587313704E+00
  1.97498036853E+00  2.01487761850E+00  2.05558084639E+00  2.09710633402E+00
  2.13947069214E+00  2.18269086707E+00  2.22678414745E+00  2.27176817118E+00
  2.31766093247E+00  2.36448078903E+00  2.41224646944E+00  2.46097708060E+00
  2.51069211540E+00  2.56141146052E+00  2.61315540439E+00  2.66594464525E+00
  2.71980029952E+00  2.77474391018E+00  2.83079745540E+00  2.88798335734E+00
  2.94632449113E+00  3.00584419401E+00  3.06656627464E+00  3.12851502267E+00
  3.19171521842E+00  3.25619214281E+00  3.32197158748E+00  3.38907986508E+00
  3.45754381981E+00  3.52739083818E+00  3.59864885991E+00  3.67134638916E+00
  3.74551250592E+00  3.82117687763E+00  3.89836977104E+00  3.97712206433E+00
  4.05746525948E+00  4.13943149484E+00  4.22305355798E+00  4.30836489886E+00
  4.39539964314E+00  4.48419260588E+00  4.57477930546E+00  4.66719597776E+00
  4.76147959067E+00  4.85766785892E+00  4.95579925907E+00  5.05591304501E+00
  5.15804926358E+00  5.26224877062E+00  5.36855324735E+00  5.47700521695E+00
  5.58764806166E+00  5.70052604011E+00  5.81568430497E+00  5.93316892111E+00
  6.05302688392E+00  6.17530613819E+00  6.30005559726E+00  6.42732516257E+00
  6.55716574364E+00  6.68962927844E+00  6.82476875414E+00  6.96263822835E+00
  7.10329285068E+00  7.24678888487E+00  7.39318373124E+00  7.54253594967E+00
  7.69490528305E+00  7.85035268115E+00  8.00894032499E+00  8.17073165175E+00
  8.33579138012E+00  8.50418553618E+00  8.67598147984E+00  8.85124793178E+00
  9.03005500092E+00  9.21247421245E+00  9.39857853650E+00  9.58844241729E+00
  9.78214180289E+00  9.97975417564E+00  1.01813585831E+01  1.03870356698E+01
  1.05968677092E+01  1.08109386370E+01  1.10293340845E+01  1.12521414126E+01
  1.14794497473E+01  1.17113500149E+01  1.19479349788E+01  1.21892992759E+01
  1.24355394552E+01  1.26867540162E+01  1.29430434479E+01  1.32045102696E+01
  1.34712590714E+01  1.37433965565E+01  1.40210315835E+01  1.43042752100E+01
  1.45932407374E+01  1.48880437556E+01  1.51888021898E+01  1.54956363475E+01
  1.58086689663E+01  1.61280252634E+01  1.64538329857E+01  1.67862224606E+01
  1.71253266483E+01  1.74712811950E+01  1.78242244871E+01  1.81842977067E+01
  1.85516448878E+01  1.89264129743E+01  1.93087518782E+01  1.96988145404E+01
  2.00967569911E+01  2.05027384125E+01  2.09169212026E+01  2.13394710402E+01
  2.17705569506E+01  2.22103513742E+01  2.26590302344E+01  2.31167730088E+01
  2.35837628007E+01  2.40601864122E+01  2.45462344190E+01  2.50421012468E+01
  2.55479852491E+01  2.60640887861E+01  2.65906183062E+01  2.71277844281E+01
  2.76758020255E+01  2.82348903128E+01  2.88052729326E+01  2.93871780457E+01
  2.99808384218E+01  3.05864915330E+01  3.12043796487E+01  3.18347499323E+01
  3.24778545404E+01  3.31339507233E+01  3.38033009283E+01  3.44861729043E+01
  3.51828398094E+01  3.58935803195E+01  3.66186787403E+01  3.73584251209E+01
  3.81131153696E+01  3.88830513727E+01  3.96685411147E+01  4.04698988022E+01
  4.12874449887E+01  4.21215067038E+01  4.29724175831E+01  4.38405180025E+01
  4.47261552136E+01  4.56296834832E+01  4.65514642345E+01  4.74918661923E+01
  4.84512655297E+01  4.94300460194E+01  5.04285991866E+01  5.14473244658E+01
  5.24866293608E+01  5.35469296074E+01  5.46286493398E+01  5.57322212603E+01
  5.68580868124E+01  5.80066963574E+01  5.91785093544E+01  6.03739945441E+01
  6.15936301367E+01  6.28379040025E+01  6.41073138679E+01  6.54023675135E+01
  6.67235829782E+01  6.80714887657E+01  6.94466240564E+01  7.08495389227E+01
  7.22807945492E+01  7.37409634573E+01  7.52306297340E+01  7.67503892657E+01
  7.83008499764E+01  7.98826320712E+01  8.14963682839E+01  8.31427041305E+01
  8.48222981674E+01  8.65358222546E+01  8.82839618244E+01  9.00674161561E+01
  9.18868986552E+01  9.37431371390E+01  9.56368741275E+01  9.75688671409E+01
  9.95398890020E+01
  </PP_R>
  <PP_RAB>
  2.27970491389E-06  2.32575800801E-06  2.37274143635E-06  2.42067399290E-06
  2.46957485133E-06  2.51946357262E-06  2.57036011294E-06  2.62228483157E-06
  2.67525849910E-06  2.72930230570E-06  2.78443786961E-06  2.84068724580E-06
  2.89807293476E-06  2.95661789154E-06  3.01634553490E-06  3.07727975668E-06
  3.13944493141E-06  3.20286592596E-06  3.26756810959E-06  3.33357736403E-06
  3.40092009387E-06  3.46962323709E-06  3.53971427587E-06  3.61122124755E-06
  3.68417275588E-06  3.75859798244E-06  3.83452669831E-06  3.91198927599E-06
  3.99101670153E-06  4.07164058697E-06  4.15389318293E-06  4.23780739156E-06
  4.32341677964E-06  4.41075559209E-06  4.49985876558E-06  4.59076194257E-06
  4.68350148556E-06  4.77811449158E-06  4.87463880711E-06  4.97311304316E-06
  5.07357659074E-06  5.17606963660E-06  5.28063317933E-06  5.38730904574E-06
  5.49613990761E-06  5.60716929871E-06  5.72044163231E-06  5.83600221882E-06
  5.95389728404E-06  6.07417398756E-06  6.19688044167E-06  6.32206573057E-06
  6.44977993007E-06  6.58007412753E-06  6.71300044238E-06  6.84861204692E-06
  6.98696318759E-06  7.12810920670E-06  7.27210656453E-06  7.41901286195E-06
  7.56888686344E-06  7.72178852059E-06  7.87777899611E-06  8.03692068827E-06
  8.19927725586E-06  8.36491364368E-06  8.53389610849E-06  8.70629224553E-06
  8.88217101555E-06  9.06160277241E-06  9.24465929121E-06  9.43141379698E-06
  9.62194099403E-06  9.81631709576E-06  1.00146198552E-05  1.02169285962E-05
  1.04233242448E-05  1.06338893620E-05  1.08487081768E-05  1.10678666196E-05
  1.12914523565E-05  1.15195548250E-05  1.17522652690E-05  1.19896767757E-05
  1.22318843131E-05  1.24789847673E-05  1.27310769817E-05  1.29882617968E-05
  1.32506420897E-05  1.35183228161E-05  1.37914110519E-05  1.40700160360E-05
  1.43542492141E-05  1.46442242833E-05  1.49400572375E-05  1.52418664138E-05
  1.55497725399E-05  1.58638987823E-05  1.61843707957E-05  1.65113167733E-05
  1.68448674977E-05  1.71851563937E-05  1.75323195815E-05  1.78864959308E-05
  1.82478271170E-05  1.86164576773E-05  1.89925350689E-05  1.93762097278E-05
  1.97676351290E-05  2.01669678477E-05  2.05743676226E-05  2.09899974187E-05
  2.14140234937E-05  2.18466154637E-05  2.22879463711E-05  2.27381927542E-05
  2.31975347177E-05  2.36661560043E-05  2.41442440688E-05  2.46319901530E-05
  2.51295893616E-05  2.56372407410E-05  2.61551473586E-05  2.66835163838E-05
  2.72225591714E-05  2.77724913456E-05  2.83335328867E-05  2.89059082187E-05
  2.94898462994E-05  3.00855807118E-05  3.06933497577E-05  3.13133965527E-05
  3.19459691238E-05  3.25913205086E-05  3.32497088561E-05  3.39213975305E-05
  3.46066552162E-05  3.53057560254E-05  3.60189796078E-05  3.67466112623E-05
  3.74889420512E-05  3.82462689168E-05  3.90188948000E-05  3.98071287613E-05
  4.06112861049E-05  4.14316885044E-05  4.22686641318E-05  4.31225477884E-05
  4.39936810391E-05  4.48824123488E-05  4.57890972218E-05  4.67140983443E-05
  4.76577857290E-05  4.86205368635E-05  4.96027368609E-05  5.06047786145E-05
  5.16270629543E-05  5.26699988076E-05  5.37340033627E-05  5.48195022357E-05
  5.59269296404E-05  5.70567285627E-05  5.82093509372E-05  5.93852578283E-05
  6.05849196142E-05  6.18088161758E-05  6.30574370881E-05  6.43312818159E-05
  6.56308599142E-05  6.69566912316E-05  6.83093061182E-05  6.96892456381E-05
  7.10970617855E-05  7.25333177055E-05  7.39985879197E-05  7.54934585558E-05
  7.70185275819E-05  7.85744050459E-05  8.01617133197E-05  8.17810873475E-05
  8.34331749008E-05  8.51186368365E-05  8.68381473618E-05  8.85923943040E-05
  9.03820793851E-05  9.22079185031E-05  9.40706420179E-05  9.59709950439E-05
  9.79097377475E-05  9.98876456516E-05  1.01905509946E-04  1.03964137803E-04
  1.06064352701E-04  1.08206994755E-04  1.10392921049E-04  1.12623005984E-04
  1.14898141623E-04  1.17219238050E-04  1.19587223735E-04  1.22003045905E-04
  1.24467670920E-04  1.26982084662E-04  1.29547292932E-04  1.32164321846E-04
  1.34834218251E-04  1.37558050141E-04  1.40336907085E-04  1.43171900664E-04
  1.46064164911E-04  1.49014856772E-04  1.52025156563E-04  1.55096268443E-04
  1.58229420899E-04  1.61425867233E-04  1.64686886066E-04  1.68013781849E-04
  1.71407885386E-04  1.74870554362E-04  1.78403173891E-04  1.82007157069E-04
  1.85683945536E-04  1.89435010057E-04  1.93261851108E-04  1.97165999477E-04
  2.01149016874E-04  2.05212496560E-04  2.09358063980E-04  2.13587377418E-04
  2.17902128655E-04  2.22304043648E-04  2.26794883224E-04  2.31376443776E-04
  2.36050557991E-04  2.40819095576E-04  2.45683964011E-04  2.50647109307E-04
  2.55710516789E-04  2.60876211887E-04  2.66146260948E-04  2.71522772062E-04
  2.77007895906E-04  2.82603826601E-04  2.88312802595E-04  2.94137107554E-04
  3.00079071279E-04  3.06141070632E-04  3.12325530496E-04  3.18634924737E-04
  3.25071777196E-04  3.31638662700E-04  3.38338208092E-04  3.45173093277E-04
  3.52146052303E-04  3.59259874444E-04  3.66517405326E-04  3.73921548057E-04
  3.81475264392E-04  3.89181575920E-04  3.97043565267E-04  4.05064377335E-04
  4.13247220554E-04  4.21595368171E-04  4.30112159558E-04  4.38801001542E-04
  4.47665369779E-04  4.56708810132E-04  4.65934940099E-04  4.75347450254E-04
  4.84950105727E-04  4.94746747709E-04  5.04741294987E-04  5.14937745512E-04
  5.25340178002E-04  5.35952753567E-04  5.46779717381E-04  5.57825400371E-04
  5.69094220960E-04  5.80590686824E-04  5.92319396705E-04  6.04285042243E-04
  6.16492409854E-04  6.28946382649E-04  6.41651942384E-04  6.54614171451E-04
  6.67838254915E-04  6.81329482585E-04  6.95093251133E-04  7.09135066249E-04
  7.23460544848E-04  7.38075417310E-04  7.52985529781E-04  7.68196846503E-04
  7.83715452207E-04  7.99547554541E-04  8.15699486558E-04  8.32177709245E-04
  8.48988814112E-04  8.66139525825E-04  8.83636704897E-04  9.01487350433E-04
  9.19698602929E-04  9.38277747128E-04  9.57232214938E-04  9.76569588396E-04
  9.96297602711E-04  1.01642414935E-03  1.03695727920E-03  1.05790520579E-03
  1.07927630857E-03  1.10107913626E-03  1.12332241029E-03  1.14601502826E-03
  1.16916606752E-03  1.19278478880E-03  1.21688063990E-03  1.24146325948E-03
  1.26654248091E-03  1.29212833623E-03  1.31823106011E-03  1.34486109399E-03
  1.37202909024E-03  1.39974591641E-03  1.42802265962E-03  1.45687063093E-03
  1.48630136993E-03  1.51632664928E-03  1.54695847952E-03  1.57820911377E-03
  1.61009105271E-03  1.64261704954E-03  1.67580011509E-03  1.70965352303E-03
  1.74419081518E-03  1.77942580691E-03  1.81537259268E-03  1.85204555170E-03
  1.88945935364E-03  1.92762896451E-03  1.96656965267E-03  2.00629699491E-03
  2.04682688269E-03  2.08817552853E-03  2.13035947242E-03  2.17339558850E-03
  2.21730109179E-03  2.26209354509E-03  2.30779086597E-03  2.35441133396E-03
  2.40197359788E-03  2.45049668327E-03  2.50000000000E-03  2.55050335007E-03
  2.60202693548E-03  2.65459136636E-03  2.70821766919E-03  2.76292729519E-03
  2.81874212895E-03  2.87568449714E-03  2.93377717748E-03  2.99304340780E-03
  3.05350689540E-03  3.11519182647E-03  3.17812287580E-03  3.24232521666E-03
  3.30782453084E-03  3.37464701894E-03  3.44281941084E-03  3.51236897641E-03
  3.58332353640E-03  3.65571147359E-03  3.72956174410E-03  3.80490388905E-03
  3.88176804628E-03  3.96018496249E-03  4.04018600548E-03  4.12180317675E-03
  4.20506912425E-03  4.29001715546E-03  4.37668125074E-03  4.46509607688E-03
  4.55529700098E-03  4.64732010462E-03  4.74120219826E-03  4.83698083601E-03
  4.93469433058E-03  5.03438176868E-03  5.13608302661E-03  5.23983878624E-03
  5.34569055124E-03  5.45368066375E-03  5.56385232123E-03  5.67624959383E-03
  5.79091744195E-03  5.90790173426E-03  6.02724926604E-03  6.14900777789E-03
  6.27322597484E-03  6.39995354582E-03  6.52924118356E-03  6.66114060482E-03
  6.79570457115E-03  6.93298690991E-03  7.07304253588E-03  7.21592747317E-03
  7.36169887766E-03  7.51041505987E-03  7.66213550823E-03  7.81692091297E-03
  7.97483319029E-03  8.13593550722E-03  8.30029230684E-03  8.46796933405E-03
  8.63903366191E-03  8.81355371841E-03  8.99159931392E-03  9.17324166905E-03
  9.35855344315E-03  9.54760876342E-03  9.74048325449E-03  9.93725406874E-03
  1.01379999171E-02  1.03428011006E-02  1.05517395425E-02  1.07648988209E-02
  1.09823642023E-02  1.12042226758E-02  1.14305629879E-02  1.16614756775E-02
  1.18970531128E-02  1.21373895281E-02  1.23825810610E-02  1.26327257914E-02
  1.28879237806E-02  1.31482771111E-02  1.34138899278E-02  1.36848684793E-02
  1.39613211607E-02  1.42433585567E-02  1.45310934860E-02  1.48246410465E-02
  1.51241186610E-02  1.54296461247E-02  1.57413456526E-02  1.60593419286E-02
  1.63837621555E-02  1.67147361057E-02  1.70523961732E-02  1.73968774266E-02
  1.77483176629E-02  1.81068574629E-02  1.84726402473E-02  1.88458123342E-02
  1.92265229972E-02  1.96149245258E-02  2.00111722857E-02  2.04154247814E-02
  2.08278437192E-02  2.12485940722E-02  2.16778441462E-02  2.21157656468E-02
  2.25625337486E-02  2.30183271647E-02  2.34833282186E-02  2.39577229169E-02
  2.44417010238E-02  2.49354561370E-02  2.54391857652E-02  2.59530914068E-02
  2.64773786311E-02  2.70122571598E-02  2.75579409516E-02  2.81146482872E-02
  2.86826018570E-02  2.92620288500E-02  2.98531610446E-02  3.04562349018E-02
  3.10714916589E-02  3.16991774271E-02  3.23395432889E-02  3.29928453991E-02
  3.36593450875E-02  3.43393089627E-02  3.50330090193E-02  3.57407227467E-02
  3.64627332397E-02  3.71993293122E-02  3.79508056124E-02  3.87174627408E-02
  3.94996073707E-02  4.02975523701E-02  4.11116169277E-02  4.19421266803E-02
  4.27894138429E-02  4.36538173414E-02  4.45356829490E-02  4.54353634236E-02
  4.63532186494E-02  4.72896157806E-02  4.82449293888E-02  4.92195416119E-02
  5.02138423080E-02  5.12282292105E-02  5.22631080877E-02  5.33188929051E-02
  5.43960059905E-02  5.54948782036E-02  5.66159491079E-02  5.77596671468E-02
  5.89264898227E-02  6.01168838802E-02  6.13313254928E-02  6.25703004533E-02
  6.38343043684E-02  6.51238428563E-02  6.64394317497E-02  6.77815973016E-02
  6.91508763963E-02  7.05478167635E-02  7.19729771981E-02  7.34269277832E-02
  7.49102501185E-02  7.64235375526E-02  7.79673954208E-02  7.95424412867E-02
  8.11493051897E-02  8.27886298967E-02  8.44610711596E-02  8.61672979771E-02
  8.79079928628E-02  8.96838521177E-02  9.14955861092E-02  9.33439195551E-02
  9.52295918135E-02  9.71533571783E-02  9.91159851814E-02  1.01118260900E-01
  1.03160985272E-01  1.05244975412E-01  1.07371064947E-01  1.09540104339E-01
  1.11752961233E-01  1.14010520802E-01  1.16313686099E-01  1.18663378422E-01
  1.21060537678E-01  1.23506122764E-01  1.26001111945E-01  1.28546503251E-01
  1.31143314873E-01  1.33792585569E-01  1.36495375083E-01  1.39252764567E-01
  1.42065857014E-01  1.44935777697E-01  1.47863674625E-01  1.50850718993E-01
  1.53898105661E-01  1.57007053623E-01  1.60178806500E-01  1.63414633035E-01
  1.66715827602E-01  1.70083710724E-01  1.73519629597E-01  1.77024958636E-01
  1.80601100018E-01  1.84249484249E-01  1.87971570730E-01  1.91768848346E-01
  1.95642836058E-01  1.99595083513E-01  2.03627171662E-01  2.07740713396E-01
  2.11937354185E-01  2.16218772741E-01  2.20586681689E-01  2.25042828251E-01
  2.29588994945E-01  2.34227000299E-01  2.38958699575E-01  2.43785985518E-01
  2.48710789105E-01  2.53735080324E-01  2.58860868958E-01  2.64090205392E-01
  2.69425181429E-01  2.74867931130E-01  2.80420631670E-01  2.86085504200E-01
  2.91864814747E-01  2.97760875112E-01  3.03776043797E-01  3.09912726950E-01
  3.16173379325E-01  3.22560505268E-01  3.29076659715E-01  3.35724449212E-01
  3.42506532966E-01  3.49425623900E-01  3.56484489742E-01  3.63685954134E-01
  3.71032897756E-01  3.78528259485E-01  3.86175037565E-01  3.93976290808E-01
  4.01935139822E-01  4.10054768250E-01  4.18338424053E-01  4.26789420803E-01
  4.35411139013E-01  4.44207027483E-01  4.53180604688E-01  4.62335460177E-01
  4.71675256014E-01  4.81203728243E-01  4.90924688379E-01  5.00842024937E-01
  5.10959704982E-01  5.21281775723E-01  5.31812366124E-01  5.42555688562E-01
  5.53516040510E-01  5.64697806255E-01  5.76105458652E-01  5.87743560913E-01
  5.99616768436E-01  6.11729830661E-01  6.24087592974E-01  6.36694998646E-01
  6.49557090807E-01  6.62679014466E-01  6.76066018565E-01  6.89723458087E-01
  7.03656796188E-01  7.17871606390E-01  7.32373574806E-01  7.47168502418E-01
  7.62262307392E-01  7.77661027453E-01  7.93370822295E-01  8.09397976043E-01
  8.25748899774E-01  8.42430134075E-01  8.59448351662E-01  8.76810360050E-01
  8.94523104272E-01  9.12593669663E-01  9.31029284690E-01  9.49837323845E-01
  9.69025310594E-01  9.88600920388E-01  1.00857198373E+00  1.02894648932E+00
  1.04973258722E+00  1.07093859215E+00  1.09257298680E+00  1.11464442521E+00
  1.13716173625E+00  1.16013392715E+00  1.18357018709E+00  1.20747989088E+00
  1.23187260273E+00  1.25675808005E+00  1.28214627736E+00  1.30804735027E+00
  1.33447165956E+00  1.36142977531E+00  1.38893248113E+00  1.41699077845E+00
  1.44561589098E+00  1.47481926915E+00  1.50461259468E+00  1.53500778531E+00
  1.56601699953E+00  1.59765264142E+00  1.62992736568E+00  1.66285408261E+00
  1.69644596335E+00  1.73071644509E+00  1.76567923649E+00  1.80134832312E+00
  1.83773797310E+00  1.87486274278E+00  1.91273748255E+00  1.95137734282E+00
  1.99079778004E+00
  </PP_RAB>
</PP_MESH>


<PP_NLCC>
  1.58770855197E-03  1.58770855080E-03  1.58770854958E-03  1.58770854832E-03
  1.58770854700E-03  1.58770854563E-03  1.58770854420E-03  1.58770854272E-03
  1.58770854117E-03  1.58770853956E-03  1.58770853788E-03  1.58770853614E-03
  1.58770853432E-03  1.58770853244E-03  1.58770853047E-03  1.58770852842E-03
  1.58770852629E-03  1.58770852408E-03  1.58770852177E-03  1.58770851937E-03
  1.58770851687E-03  1.58770851427E-03  1.58770851156E-03  1.58770850874E-03
  1.58770850581E-03  1.58770850276E-03  1.58770849958E-03  1.58770849627E-03
  1.58770849283E-03  1.58770848925E-03  1.58770848552E-03  1.58770848164E-03
  1.58770847760E-03  1.58770847340E-03  1.58770846902E-03  1.58770846447E-03
  1.58770845973E-03  1.58770845479E-03  1.58770844966E-03  1.58770844431E-03
  1.58770843875E-03  1.58770843296E-03  1.58770842694E-03  1.58770842067E-03
  1.58770841414E-03  1.58770840734E-03  1.58770840027E-03  1.58770839291E-03
  1.58770838525E-03  1.58770837728E-03  1.58770836898E-03  1.58770836035E-03
  1.58770835136E-03  1.58770834200E-03  1.58770833226E-03  1.58770832213E-03
  1.58770831158E-03  1.58770830060E-03  1.58770828917E-03  1.58770827728E-03
  1.58770826490E-03  1.58770825201E-03  1.58770823860E-03  1.58770822465E-03
  1.58770821012E-03  1.58770819500E-03  1.58770817926E-03  1.58770816288E-03
  1.58770814583E-03  1.58770812809E-03  1.58770810962E-03  1.58770809040E-03
  1.58770807040E-03  1.58770804957E-03  1.58770802790E-03  1.58770800534E-03
  1.58770798187E-03  1.58770795743E-03  1.58770793200E-03  1.58770790553E-03
  1.58770787798E-03  1.58770784930E-03  1.58770781946E-03  1.58770778840E-03
  1.58770775606E-03  1.58770772241E-03  1.58770768739E-03  1.58770765094E-03
  1.58770761300E-03  1.58770757351E-03  1.58770753241E-03  1.58770748963E-03
  1.58770744511E-03  1.58770739877E-03  1.58770735053E-03  1.58770730033E-03
  1.58770724808E-03  1.58770719370E-03  1.58770713710E-03  1.58770707819E-03