<UPF version="2.0.1">
   <PP_INFO>
         UPF file from ATOMPAW code with following input
           Si 14
           GGA-PBESOL  loggrid    2001
           3 3 0 0 0 0
           3 1 2
           0 0 0
           c
           c
           v
           c
           v
           2
           1.7   1.5   1.7    1.7
           y
           14
           n
           y
           14
           n
           y
           2
           y
           12
           n
           MODRRKJ VANDERBILTORTHO  Besselshape
           3 0   MTROULLIER
           1.7
           1.7
           1.7
           1.7
           1.7
           1.7
  </PP_INFO>
  <!--                               -->
  <!-- END OF HUMAN READABLE SECTION -->
  <PP_HEADER generated="Generated using ATOMPAW code"
             author="   "
             date=" 11/15/2018, 16:22:39.511"
             element="Si"
             pseudo_type="PAW"
             relativistic="no"
             is_ultrasoft="T"
             is_paw="T"
             is_coulomb="F"
             has_so="F"
             has_wfc="T"
             has_gipaw="T"
             paw_as_gipaw="T"
             core_correction="T"
             functional="SLA PW PSX PSC"
             z_valence=" 4.000"
             l_max="2"
             l_max_rho="4"
             mesh_size="  2000"
             number_of_wfc="     6"
             number_of_proj=" 6"
                                    /> 
<PP_MESH dx=" 1.2500000000000E-02" mesh="   988" xmin="-7.0000000000000E+00" zmesh=" 1.4000000000000E+01">
 <PP_R type="real" size="   988" columns="3">
  6.51344261110368804E-05  6.59537163335015866E-05  6.67833119583272945E-05
  6.76233426115181350E-05  6.84739395495728470E-05  6.93352356799934919E-05
  7.02073655820527630E-05  7.10904655278222358E-05  7.19846735034650285E-05
  7.28901292307967605E-05  7.38069741891169263E-05  7.47353516373156147E-05
  7.56754066362578653E-05  7.66272860714497692E-05  7.75911386759898500E-05
  7.85671150538084487E-05  7.95553677032002378E-05  8.05560510406523150E-05
  8.15693214249719702E-05  8.25953371817184095E-05  8.36342586279410365E-05
  8.46862480972294826E-05  8.57514699650786257E-05  8.68300906745724720E-05
  8.79222787623914960E-05  8.90282048851463942E-05  9.01480418460438876E-05
  9.12819646218874625E-05  9.24301503904177105E-05  9.35927785579971462E-05
  9.47700307876422540E-05  9.59620910274090538E-05  9.71691455391352724E-05
  9.83913829275440713E-05  9.96289941697141925E-05  1.00882172644920116E-04
  1.02151114164848167E-04  1.03436017004192546E-04  1.04737081931635925E-04
  1.06054512241220494E-04  1.07388513784112310E-04  1.08739295000766535E-04
  1.10107066953496453E-04  1.11492043359452309E-04  1.12894440624015498E-04
  1.14314477874611739E-04  1.15752376994950474E-04  1.17208362659694721E-04
  1.18682662369566706E-04  1.20175506486895793E-04  1.21687128271612423E-04
  1.23217763917695875E-04  1.24767652590079977E-04  1.26337036462022902E-04
  1.27926160752947840E-04  1.29535273766758218E-04  1.31164626930636223E-04
  1.32814474834328655E-04  1.34485075269926953E-04  1.36176689272148315E-04
  1.37889581159122081E-04  1.39624018573690495E-04  1.41380272525228328E-04
  1.43158617431988512E-04  1.44959331163981009E-04  1.46782695086389927E-04
  1.48628994103537811E-04  1.50498516703402444E-04  1.52391555002693446E-04
  1.54308404792496750E-04  1.56249365584491785E-04  1.58214740657751195E-04
  1.60204837106128799E-04  1.62219965886243342E-04  1.64260441866066851E-04
  1.66326583874122424E-04  1.68418714749302346E-04  1.70537161391312380E-04
  1.72682254811750243E-04  1.74854330185827359E-04  1.77053726904739892E-04
  1.79280788628699892E-04  1.81535863340632738E-04  1.83819303400549987E-04
  1.86131465600607030E-04  1.88472711220851548E-04  1.90843406085675044E-04
  1.93243920620973341E-04  1.95674629912026305E-04  1.98135913762106317E-04
  2.00628156751822328E-04  2.03151748299211976E-04  2.05707082720588775E-04
  2.08294559292154834E-04  2.10914582312389043E-04  2.13567561165218606E-04
  2.16253910383986802E-04  2.18974049716224499E-04  2.21728404189236336E-04
  2.24517404176512874E-04  2.27341485464976206E-04  2.30201089323073298E-04
  2.33096662569724880E-04  2.36028657644141561E-04  2.38997532676519419E-04
  2.42003751559622255E-04  2.45047784021266773E-04  2.48130105697718100E-04
  2.51251198208009166E-04  2.54411549229194961E-04  2.57611652572552186E-04
  2.60852008260738829E-04  2.64133122605923732E-04  2.67455508288898594E-04
  2.70819684439186259E-04  2.74226176716154540E-04  2.77675517391152179E-04
  2.81168245430677398E-04  2.84704906580592163E-04  2.88286053451397020E-04
  2.91912245604576193E-04  2.95584049640031175E-04  2.99302039284612823E-04
  3.03066795481767156E-04  3.06878906482309962E-04  3.10738967936340636E-04
  3.14647582986314698E-04  3.18605362361285851E-04  3.22612924472333274E-04
  3.26670895509190932E-04  3.30779909538089008E-04  3.34940608600829335E-04
  3.39153642815105531E-04  3.43419670476084672E-04  3.47739358159268803E-04
  3.52113380824646538E-04  3.56542421922158347E-04  3.61027173498486720E-04
  3.65568336305189406E-04  3.70166619908194607E-04  3.74822742798670307E-04
  3.79537432505291125E-04  3.84311425707915724E-04  3.89145468352694655E-04
  3.94040315768626540E-04  3.98996732785578568E-04  4.04015493853793445E-04
  4.09097383164898928E-04  4.14243194774438668E-04  4.19453732725946565E-04
  4.24729811176578157E-04  4.30072254524325646E-04  4.35481897536831302E-04
  4.40959585481821490E-04  4.46506174259182927E-04  4.52122530534696204E-04
  4.57809531875455944E-04  4.63568066886991907E-04  4.69399035352115180E-04
  4.75303348371512409E-04  4.81281928506104809E-04  4.87335709921201993E-04
  4.93465638532466599E-04  4.99672672153715007E-04  5.05957780646580386E-04
  5.12321946072049955E-04  5.18766162843920789E-04  5.25291437884174012E-04
  5.31898790780309882E-04  5.38589253944662624E-04  5.45363872775711501E-04
  5.52223705821433650E-04  5.59169824944698150E-04  5.66203315490749559E-04
  5.73325276456797196E-04  5.80536820663729342E-04  5.87839074930002138E-04
  5.95233180247700688E-04  6.02720291960823630E-04  6.10301579945810501E-04
  6.17978228794330959E-04  6.25751437998387687E-04  6.33622422137732782E-04
  6.41592411069651157E-04  6.49662650121130285E-04  6.57834400283438601E-04
  6.66108938409166128E-04  6.74487557411729386E-04  6.82971566467393165E-04
  6.91562291219835197E-04  7.00261073987273430E-04  7.09069273972215137E-04
  7.17988267473827616E-04  7.27019448102990558E-04  7.36164227000053501E-04
  7.45424033055321783E-04  7.54800313132332479E-04  7.64294532293923455E-04
  7.73908174031153655E-04  7.83642740495106289E-04  7.93499752731593338E-04
  8.03480750918833162E-04  8.13587294608098389E-04  8.23820962967401521E-04
  8.34183355028246662E-04  8.44676089935472740E-04  8.55300807200258702E-04
  8.66059166956292836E-04  8.76952850219173997E-04  8.87983559149078017E-04
  8.99153017316714118E-04  9.10462969972647787E-04  9.21915184319990950E-04
  9.33511449790534287E-04  9.45253578324352882E-04  9.57143404652916244E-04
  9.69182786585780958E-04  9.81373605300867383E-04  9.93717765638401284E-04
  1.00621719639855259E-03  1.01887385064280403E-03  1.03168970599913428E-03
  1.04466676497101587E-03  1.05780705525031432E-03  1.07111263003412268E-03
  1.08458556834556755E-03  1.09822797535867383E-03  1.11204198272729215E-03
  1.12602974891817765E-03  1.14019345954825867E-03  1.15453532772613393E-03
  1.16905759439788772E-03  1.18376252869723257E-03  1.19865242830006851E-03
  1.21372961978350596E-03  1.22899645898938447E-03  1.24445533139239399E-03
  1.26010865247279738E-03  1.27595886809385960E-03  1.29200845488402225E-03
  1.30825992062386987E-03  1.32471580463799183E-03  1.34137867819174349E-03
  1.35825114489301836E-03  1.37533584109906658E-03  1.39263543632842817E-03
  1.41015263367805579E-03  1.42789017024567348E-03  1.44585081755745646E-03
  1.46403738200108990E-03  1.48245270526426733E-03  1.50109966477871655E-03
  1.51998117416979827E-03  1.53910018371176938E-03  1.55845968078876943E-03
  1.57806269036160304E-03  1.59791227544040003E-03  1.61801153756321219E-03
  1.63836361728063795E-03  1.65897169464654100E-03  1.67983898971493621E-03
  1.70096876304313429E-03  1.72236431620120529E-03  1.74402899228785963E-03
  1.76596617645281427E-03  1.78817929642572488E-03  1.81067182305178170E-03
  1.83344727083403097E-03  1.85650919848252480E-03  1.87986120947037966E-03
  1.90350695259682034E-03  1.92745012255732045E-03  1.95169446052089780E-03
  1.97624375471468433E-03  2.00110184101584456E-03  2.02627260355093576E-03
  2.05175997530281659E-03  2.07756793872517680E-03  2.10370052636480636E-03
  2.13016182149169345E-03  2.15695595873703584E-03  2.18408712473929260E-03
  2.21155955879834927E-03  2.23937755353792066E-03  2.26754545557628214E-03
  2.29606766620543343E-03  2.32494864207881662E-03  2.35419289590766898E-03
  2.38380499716614848E-03  2.41378957280532569E-03  2.44415130797614533E-03
  2.47489494676150171E-03  2.50602529291750259E-03  2.53754721062406877E-03
  2.56946562524497640E-03  2.60178552409744525E-03  2.63451195723142951E-03
  2.66765003821868704E-03  2.70120494495179175E-03  2.73518192045318995E-03
  2.76958627369442920E-03  2.80442338042570126E-03  2.83969868401580828E-03
  2.87541769630270377E-03  2.91158599845473031E-03  2.94820924184268198E-03
  2.98529314892285102E-03  3.02284351413116548E-03  3.06086620478858472E-03
  3.09936716201788393E-03  3.13835240167195878E-03  3.17782801527382317E-03
  3.21780017096841590E-03  3.25827511448638623E-03  3.29925917012000849E-03
  3.34075874171135562E-03  3.38278031365292367E-03  3.42533045190081958E-03
  3.46841580500071222E-03  3.51204310512668455E-03  3.55621916913313870E-03
  3.60095089961995568E-03  3.64624528601102975E-03  3.69210940564638655E-03
  3.73855042488802731E-03  3.78557560023970018E-03  3.83319227948072374E-03
  3.88140790281410681E-03  3.93023000402909026E-03  3.97966621167831439E-03
  4.02972425026981110E-03  4.08041194147394908E-03  4.13173720534560588E-03
  4.18370806156168236E-03  4.23633263067419406E-03  4.28961913537913905E-03
  4.34357590180128351E-03  4.39821136079515933E-03  4.45353404926238962E-03
  4.50955261148559827E-03  4.56627580047911253E-03  4.62371247935661114E-03
  4.68187162271602609E-03  4.74076231804183151E-03  4.80039376712498248E-03
  4.86077528750072842E-03  4.92191631390447026E-03  4.98382639974597613E-03
  5.04651521860211612E-03  5.10999256572837283E-03  5.17426835958938961E-03
  5.23935264340872394E-03  5.30525558673813642E-03  5.37198748704660178E-03
  5.43955877132930917E-03  5.50797999773690837E-03  5.57726185722522659E-03
  5.64741517522576297E-03  5.71845091333718445E-03  5.79038017103808856E-03
  5.86321418742134261E-03  5.93696434295018331E-03  6.01164216123645755E-03
  6.08725931084120545E-03  6.16382760709789212E-03  6.24135901395859918E-03
  6.31986564586337930E-03  6.39935976963319341E-03  6.47985380638661096E-03
  6.56136033348063506E-03  6.64389208647596374E-03  6.72746196112690605E-03
  6.81208301539640380E-03  6.89776847149634748E-03  6.98453171795357462E-03
  7.07238631170187867E-03  7.16134598020026769E-03  7.25142462357793432E-03
  7.34263631680617378E-03  7.43499531189761777E-03  7.52851604013316661E-03
  7.62321311431687215E-03  7.71910133105923636E-03  7.81619567308921258E-03
  7.91451131159528337E-03  8.01406360859598099E-03  8.11486811934026935E-03
  8.21694059473803036E-03  8.32029698382121506E-03  8.42495343623589875E-03
  8.53092630476568782E-03  8.63823214788690674E-03  8.74688773235585311E-03
  8.85691003582866378E-03  8.96831624951409390E-03  9.08112378085968418E-03
  9.19535025627173097E-03  9.31101352386940785E-03  9.42813165627359208E-03
  9.54672295343074982E-03  9.66680594547233638E-03  9.78839939561017627E-03
  9.91152230306823444E-03  1.00361939060512988E-02  1.01624336847509766E-02
  1.02902613643895188E-02  1.04196969183019579E-02  1.05507605710569181E-02
  1.06834728016167967E-02  1.08178543465376198E-02  1.09539262032091762E-02
  1.10917096331359290E-02  1.12312261652591193E-02  1.13724975993207394E-02
  1.15155460092697774E-02  1.16603937467113141E-02  1.18070634443990397E-02
  1.19555780197716111E-02  1.21059606785335859E-02  1.22582349182813466E-02
  1.24124245321746533E-02  1.25685536126543939E-02  1.27266465552070360E-02
  1.28867280621764897E-02  1.30488231466239120E-02  1.32129571362360199E-02
  1.33791556772826468E-02  1.35474447386239507E-02  1.37178506157681589E-02
  1.38903999349802611E-02  1.40651196574424330E-02  1.42420370834667985E-02
  1.44211798567611040E-02  1.46025759687481490E-02  1.47862537629394851E-02
  1.49722419393641289E-02  1.51605695590530786E-02  1.53512660485800468E-02
  1.55443612046595007E-02  1.57398851988024280E-02  1.59378685820307023E-02
  1.61383422896507790E-02  1.63413376460873234E-02  1.65468863697777781E-02
  1.67550205781284156E-02  1.69657727925327240E-02  1.71791759434530115E-02
  1.73952633755657705E-02  1.76140688529719015E-02  1.78356265644724100E-02
  1.80599711289104632E-02  1.82871376005807225E-02  1.85171614747065456E-02
  1.87500786929862447E-02  1.89859256492090553E-02  1.92247391949417028E-02
  1.94665566452866187E-02  1.97114157847123710E-02  1.99593548729576735E-02
  2.02104126510095038E-02  2.04646283471564341E-02  2.07220416831182426E-02
  2.09826928802523509E-02  2.12466226658386236E-02  2.15138722794430207E-02
  2.17844834793613773E-02  2.20584985491442780E-02  2.23359603042038481E-02
  2.26169120985038122E-02  2.29013978313336343E-02  2.31894619541678400E-02
  2.34811494776117277E-02  2.37765059784342606E-02  2.40755776066896056E-02
  2.43784110929281365E-02  2.46850537554981798E-02  2.49955535079396732E-02
  2.53099588664706318E-02  2.56283189575679839E-02  2.59506835256436766E-02
  2.62771029408173096E-02  2.66076282067866446E-02  2.69423109687969321E-02
  2.72812035217106508E-02  2.76243588181786792E-02  2.79718304769142126E-02
  2.83236727910709252E-02  2.86799407367261984E-02  2.90406899814713813E-02
  2.94059768931099128E-02  2.97758585484648834E-02  3.01503927422975375E-02
  3.05296379963376288E-02  3.09136535684276792E-02  3.13024994617821101E-02
  3.16962364343628469E-02  3.20949260083729787E-02  3.24986304798695474E-02
  3.29074129284975744E-02  3.33213372273463357E-02  3.37404680529296216E-02
  3.41648708952917227E-02  3.45946120682401881E-02  3.50297587197076002E-02
  3.54703788422435634E-02  3.59165412836386366E-02  3.63683157576820890E-02
  3.68257728550545962E-02  3.72889840543583137E-02  3.77580217332855531E-02
  3.82329591799278751E-02  3.87138706042276584E-02  3.92008311495733314E-02
  3.96939169045408338E-02  4.01932049147825793E-02  4.06987731950659293E-02
  4.12107007414633381E-02  4.17290675436954306E-02  4.22539545976296713E-02
  4.27854439179361293E-02  4.33236185509023874E-02  4.38685625874098498E-02
  4.44203611760728839E-02  4.49791005365435953E-02  4.55448679729838421E-02
  4.61177518877065734E-02  4.66978417949890992E-02  4.72852283350595898E-02
  4.78800032882599758E-02  4.84822595893867753E-02  4.90920913422123045E-02
  4.97095938341887214E-02  5.03348635513366921E-02  5.09679981933216369E-02
  5.16090966887194774E-02  5.22582592104744101E-02  5.29155871915512818E-02
  5.35811833407844329E-02  5.42551516589263524E-02  5.49375974548979365E-02
  5.56286273622432076E-02  5.63283493557911949E-02  5.70368727685269458E-02
  5.77543083086752077E-02  5.84807680769987501E-02  5.92163655843143122E-02
  5.99612157692291023E-02  6.07154350160998904E-02  6.14791411732184476E-02
  6.22524535712256077E-02  6.30354930417568182E-02  6.38283819363225507E-02
  6.46312441454257036E-02  6.54442051179198597E-02  6.62673918806109680E-02
  6.71009330581054109E-02  6.79449588929081499E-02  6.87996012657730166E-02
  6.96649937163095062E-02  7.05412714638487259E-02  7.14285714285714246E-02
  7.23270322529024762E-02  7.32367943231735236E-02  7.41579997915589734E-02
  7.50907925982874785E-02  7.60353184941328086E-02  7.69917250631879796E-02
  7.79601617459251411E-02  7.89407798625463009E-02  7.99337326366272444E-02
  8.09391752190590230E-02  8.19572647122908948E-02  8.29881601948773973E-02
  8.40320227463350750E-02  8.50890154723113606E-02  8.61593035300700499E-02
  8.72430541542978666E-02  8.83404366832346577E-02  8.94516225851332142E-02
  9.05767854850514503E-02  9.17161011919815222E-02  9.28697477263208115E-02
  9.40379053476872867E-02  9.52207565830859581E-02  9.64184862554288563E-02
  9.76312815124140282E-02  9.88593318557679790E-02  1.00102829170855265E-01
  1.01361967756661286E-01  1.02636944356151810E-01  1.03927958187014377E-01
  1.05235210972786847E-01  1.06558906974376491E-01  1.07899253021976671E-01
  1.09256458547384278E-01  1.10630735616723791E-01  1.12022298963583511E-01
  1.13431366022567426E-01  1.14858156963270272E-01  1.16302894724679362E-01
  1.17765805050009151E-01  1.19247116521974506E-01  1.20747060598506567E-01
  1.22265871648918958E-01  1.23803786990528311E-01  1.25361046925735603E-01
  1.26937894779574206E-01  1.28534576937729239E-01  1.30151342885036436E-01
  1.31788445244464369E-01  1.33446139816587317E-01  1.35124685619555013E-01
  1.36824344929564051E-01  1.38545383321839660E-01  1.40288069712132035E-01
  1.42052676398735145E-01  1.43839479105034085E-01  1.45648757022586839E-01
  1.47480792854749104E-01  1.49335872860846930E-01  1.51214286900905354E-01
  1.53116328480939978E-01  1.55042294798817343E-01  1.56992486790693081E-01
  1.58967209178033503E-01  1.60966770515229174E-01  1.62991483237807433E-01
  1.65041663711250342E-01  1.67117632280428002E-01  1.69219713319652965E-01
  1.71348235283364153E-01  1.73503530757449204E-01  1.75685936511210755E-01
  1.77895793549988024E-01  1.80133447168439265E-01  1.82399247004494780E-01
  1.84693547093989052E-01  1.87016705925978688E-01  1.89369086498757694E-01
  1.91751056376576579E-01  1.94162987747074661E-01  1.96605257479436218E-01
  1.99078247183275103E-01  2.01582343268264241E-01  2.04117937004511835E-01
  2.06685424583697236E-01  2.09285207180978927E-01  2.11917691017676324E-01
  2.14583287424745139E-01  2.17282412907047556E-01  2.20015489208430781E-01
  2.22782943377628245E-01  2.25585207834983509E-01  2.28422720440019600E-01
  2.31295924559854510E-01  2.34205269138476668E-01  2.37151208766896521E-01
  2.40134203754173603E-01  2.43154720199344115E-01  2.46213230064248362E-01
  2.49310211247274399E-01  2.52446147658033804E-01  2.55621529292970051E-01
  2.58836852311924326E-01  2.62092619115660452E-01  2.65389338424364574E-01
  2.68727525357136732E-01  2.72107701512475875E-01  2.75530395049783772E-01
  2.78996140771889611E-01  2.82505480208612658E-01  2.86058961701380621E-01
  2.89657140488905451E-01  2.93300578793943667E-01  2.96989845911143635E-01
  3.00725518295997141E-01  3.04508179654915889E-01  3.08338421036431776E-01
  3.12216840923554062E-01  3.16144045327281298E-01  3.20120647881290299E-01
  3.24147269937821947E-01  3.28224540664763587E-01  3.32353097143962051E-01
  3.36533584470767477E-01  3.40766655854828737E-01  3.45052972722163120E-01
  3.49393204818500447E-01  3.53788030313936630E-01  3.58238135908897359E-01
  3.62744216941434383E-01  3.67306977495877984E-01  3.71927130512846482E-01
  3.76605397900649286E-01  3.81342510648084276E-01  3.86139208938654777E-01
  3.90996242266228922E-01  3.95914369552144596E-01  4.00894359263796740E-01
  4.05936989534710579E-01  4.11043048286123647E-01  4.16213333350105685E-01
  4.21448652594215545E-01  4.26749824047737258E-01  4.32117676029496411E-01
  4.37553047277284723E-01  4.43056787078919379E-01  4.48629755404940433E-01
  4.54272823042987828E-01  4.59986871733861713E-01  4.65772794309293747E-01
  4.71631494831459608E-01  4.77563888734233721E-01  4.83570902966233784E-01
  4.89653476135655907E-01  4.95812558656931135E-01  5.02049112899235817E-01
  5.08364113336856938E-01  5.14758546701461817E-01  5.21233412136274055E-01
  5.27789721352189267E-01  5.34428498785863293E-01  5.41150781759774935E-01
  5.47957620644316301E-01  5.54850079021912745E-01  5.61829233853206600E-01
  5.68896175645341451E-01  5.76052008622348177E-01  5.83297850897689041E-01
  5.90634834648962381E-01  5.98064106294804665E-01  6.05586826674027301E-01
  6.13204171226992556E-01  6.20917330179285853E-01  6.28727508727686568E-01
  6.36635927228481280E-01  6.44643821388152238E-01  6.52752442456452031E-01
  6.60963057421920630E-01  6.69276949209852590E-01  6.77695416882751922E-01
  6.86219775843322277E-01  6.94851358039991984E-01  7.03591512175041456E-01
  7.12441603915337618E-01  7.21403016105718109E-01  7.30477148985072100E-01
  7.39665420405121066E-01  7.48969266051969340E-01  7.58390139670429342E-01
  7.67929513291168209E-01  7.77588877460725025E-01  7.87369741474400309E-01
  7.97273633612097465E-01  8.07302101377113557E-01  8.17456711737937214E-01
  8.27739051373100110E-01  8.38150726919086653E-01  8.48693365221385387E-01
  8.59368613588681329E-01  8.70178140050248072E-01  8.81123633616590518E-01
  8.92206804543343779E-01  9.03429384598515850E-01  9.14793127333074385E-01
  9.26299808354938081E-01  9.37951225606430627E-01  9.49749199645199105E-01
  9.61695573928693537E-01  9.73792215102197489E-01  9.86041013290506752E-01
  9.98443882393260540E-01  1.01100276038398618E+00  1.02371960961292485E+00
  1.03659641711363748E+00  1.04963519491349588E+00  1.06283798034806076E+00
  1.07620683637941372E+00  1.08974385191851275E+00  1.10345114215157336E+00
  1.11733084887058376E+00  1.13138514080795938E+00  1.14561621397540536E+00
  1.16002629200706120E+00  1.17461762650693302E+00  1.18939249740072461E+00
  1.20435321329207490E+00  1.21950211182327584E+00  1.23484156004054735E+00
  1.25037395476387792E+00  1.26610172296154588E+00  1.28202732212933257E+00
  1.29815324067450488E+00  1.31448199830464807E+00  1.33101614642135835E+00
  1.34775826851892022E+00  1.36471098058797624E+00  1.38187693152427271E+00
  1.39925880354257282E+00  1.41685931259573805E+00  1.43468120879911920E+00
  1.45272727686025904E+00  1.47100033651400253E+00  1.48950324296310255E+00
  1.50823888732433042E+00  1.52721019708023875E+00  1.54642013653657684E+00
  1.56587170728546221E+00  1.58556794867440454E+00  1.60551193828118755E+00
  1.62570679239476634E+00  1.64615566650218570E+00  1.66686175578162299E+00
  1.68782829560166059E+00  1.70905856202679662E+00  1.73055587232935570E+00
  1.75232358550781231E+00  1.77436510281163207E+00  1.79668386827274262E+00
  1.81928336924364964E+00  1.84216713694236156E+00  1.86533874700414226E+00
  1.88880182004020014E+00  1.91256002220343979E+00  1.93661706576127912E+00
  1.96097670967572135E+00  1.98564276019069230E+00  2.01061907142676111E+00
  2.03590954598338003E+00  2.06151813554864516E+00  2.08744884151678134E+00
  2.11370571561335563E+00  2.14029286052835888E+00  2.16721443055728269E+00
  2.19447463225020956E+00  2.22207772506911860E+00  2.25002802205342611E+00
  2.27832989049389267E+00  2.30698775261505151E+00  2.33600608626615536E+00
  2.36538942562087939E+00  2.39514236188578300E+00  2.42526954401768213E+00
  2.45577567945008779E+00  2.48666553482871766E+00  2.51794393675632433E+00
  2.54961577254685068E+00  2.58168599098906659E+00  2.61415960311985973E+00
  2.64704168300718523E+00  2.68033736854292837E+00  2.71405186224570016E+00
  2.74819043207372404E+00  2.78275841224800136E+00  2.81776120408575403E+00
  2.85320427684442368E+00  2.88909316857624532E+00  2.92543348699355743E+00
  2.96223091034505837E+00  2.99949118830300065E+00  3.03722014286162745E+00
  3.07542366924685462E+00  3.11410773683739350E+00  3.15327839009752031E+00
  3.19294174952149001E+00  3.23310401258991176E+00  3.27377145473810804E+00
  3.31495043033664105E+00  3.35664737368423927E+00  3.39886880001312175E+00
  3.44162130650705844E+00  3.48491157333217583E+00  3.52874636468072778E+00
  3.57313252982805807E+00  3.61807700420276168E+00  3.66358681047040724E+00
  3.70966905963082061E+00  3.75633095212917523E+00  3.80357977898112098E+00
  3.85142292291196897E+00  3.89986785951030246E+00  3.94892215839603455E+00
  3.99859348440315410E+00  4.04888959877741961E+00  4.09981836038901726E+00
  4.15138772696057057E+00  4.20360575631053290E+00  4.25648060761221370E+00
  4.31002054266871859E+00  4.36423392720381198E+00  4.41912923216913445E+00
  4.47471503506777957E+00  4.53100002129452495E+00  4.58799298549299639E+00
  4.64570283292978647E+00  4.70413858088597880E+00  4.76330936006608674E+00
  4.82322441602472463E+00  4.88389311061130194E+00  4.94532492343275987E+00
  5.00752945333484689E+00  5.07051641990192348E+00  5.13429566497564771E+00
  5.19887715419283847E+00  5.26427097854256054E+00  5.33048735594292200E+00
  5.39753663283762020E+00  5.46542928581256326E+00  5.53417592323292684E+00
  5.60378728690065397E+00  5.67427425373295247E+00  5.74564783746180829E+00
  5.81791919035486682E+00  5.89109960495807972E+00  5.96520051586009092E+00
  6.04023350147900029E+00  6.11621028587147553E+00  6.19314274056463621E+00
  6.27104288641106589E+00  6.34992289546702349E+00  6.42979509289441520E+00
  6.51067195888660333E+00  6.59256613061842067E+00  6.67549040422083895E+00
  6.75945773678029660E+00  6.84448124836334859E+00  6.93057422406667456E+00
  7.01775011609286192E+00  7.10602254585242488E+00  7.19540530609207973E+00
  7.28591236304997825E+00  7.37755785863791846E+00  7.47035611265101629E+00
  7.56432162500528715E+00  7.65946907800318311E+00  7.75581333862782873E+00
  7.85336946086597187E+00  7.95215268806016784E+00  8.05217845529066700E+00
  8.15346239178707499E+00  8.25602032337054759E+00  8.35986827492656559E+00
  8.46502247290881016E+00  8.57149934787468304E+00  8.67931553705249748E+00
  8.78848788694118177E+00  8.89903345594253281E+00  9.01096951702658444E+00
  9.12431356043064490E+00  9.23908329639206904E+00  9.35529665791561449E+00
  9.47297180357547575E+00  9.59212712035253823E+00  9.71278122650750753E+00
  9.83495297448990868E+00  9.95866145388393953E+00  1.00839259943912136E+01
  1.02107661688510003E+01  1.03392017962986529E+01  1.04692529450622267E+01
  1.06009399358983281E+01  1.07342833451672135E+01  1.08693040080478305E+01
  1.10060230217934940E+01  1.11444617490282223E+01  1.12846418210848185E+01
  1.14265851413847628E+01  1.15703138888605963E+01  1.17158505214215705E+01
  1.18632177794625786E+01  1.20124386894175323E+01  1.21635365673572249E+01
  1.23165350226324524E+01  1.24714579615631749E+01  1.26283295911737472E+01
  1.27871744229754771E+01  1.29480172767965254E+01  1.31108832846599999E+01
  1.32757978947110225E+01  1.34427868751928923E+01  1.36118763184735716E+01
  1.37830926451226130E+01  1.39564626080393541E+01  1.41320132966332661E+01
  1.43097721410565590E+01  1.44897669164903498E+01  1.46720257474845255E+01
  1.48565771123521877E+01
                               </PP_R> 
 <PP_RAB type="real" size="   988" columns="3">
  8.14180326387961068E-07  8.24421454168769833E-07  8.34791399479091224E-07
  8.45291782643976730E-07  8.55924244369660630E-07  8.66690445999918649E-07
  8.77592069775659622E-07  8.88630819097778033E-07  8.99808418793312940E-07
  9.11126615384959570E-07  9.22587177363961622E-07  9.34191895466445183E-07
  9.45942582953223358E-07  9.57841075893122116E-07  9.69889233449873209E-07
  9.82088938172605608E-07  9.94442096290003100E-07  1.00695063800815390E-06
  1.01961651781214963E-06  1.03244171477148012E-06  1.04542823284926308E-06
  1.05857810121536849E-06  1.07189337456348291E-06  1.08537613343215594E-06
  1.09902848452989383E-06  1.11285256106432997E-06  1.12685052307554872E-06
  1.14102455777359328E-06  1.15537687988022147E-06  1.16990973197496441E-06
  1.18462538484552822E-06  1.19952613784261330E-06  1.21461431923919103E-06
  1.22989228659430102E-06  1.24536242712142741E-06  1.26102715806150150E-06
  1.27688892706060221E-06  1.29295021255240690E-06  1.30921352414544914E-06
  1.32568140301525618E-06  1.34235642230140392E-06  1.35924118750958186E-06
  1.37633833691870570E-06  1.39365054199315391E-06  1.41118050780019377E-06
  1.42893097343264686E-06  1.44690471243688097E-06  1.46510453324618419E-06
  1.48353327961958383E-06  1.50219383108619741E-06  1.52108910339515537E-06
  1.54022204897119848E-06  1.55959565737599971E-06  1.57921295577528644E-06
  1.59907700941184817E-06  1.61919092208447776E-06  1.63955783663295287E-06
  1.66018093542910836E-06  1.68106344087408700E-06  1.70220861590185398E-06
  1.72361976448902602E-06  1.74530023217113119E-06  1.76725340656535422E-06
  1.78948271789985653E-06  1.81199163954976274E-06  1.83478368857987421E-06
  1.85786242629422272E-06  1.88123145879253068E-06  1.90489443753366825E-06
  1.92885505990620963E-06  1.95311706980614748E-06  1.97768425822189002E-06
  2.00256046382661007E-06  2.02774957357804177E-06  2.05325552332583580E-06
  2.07908229842653030E-06  2.10523393436627932E-06  2.13171451739140492E-06
  2.15852818514687829E-06  2.18567912732284224E-06  2.21317158630924865E-06
  2.24100985785874856E-06  2.26919829175790948E-06  2.29774129250687501E-06
  2.32664332000758805E-06  2.35590889026064435E-06  2.38554257607093831E-06
  2.41554900776216702E-06  2.44593287390032898E-06  2.47669892202632922E-06
  2.50785195939777944E-06  2.53939685374014978E-06  2.57133853400735995E-06
  2.60368199115193542E-06  2.63643227890486312E-06  2.66959451456523274E-06
  2.70317387979983502E-06  2.73717562145280624E-06  2.77160505236545445E-06
  2.80646755220641110E-06  2.84176856831220275E-06  2.87751361653841631E-06
  2.91370828212156100E-06  2.95035822055176977E-06  2.98746915845649307E-06
  3.02504689449527828E-06  3.06309730026583483E-06  3.10162632122147641E-06
  3.14063997760011492E-06  3.18014436536493710E-06  3.22014565715690249E-06
  3.26065010325923562E-06  3.30166403257404699E-06  3.34319385361123260E-06
  3.38524605548982824E-06  3.42782720895193209E-06  3.47094396738940224E-06
  3.51460306788346764E-06  3.55881133225740203E-06  3.60357566814246283E-06
  3.64890307005720250E-06  3.69480062050038969E-06  3.74127549105766029E-06
  3.78833494352208954E-06  3.83598633102887436E-06  3.88423709920425778E-06
  3.93309478732893373E-06  3.98256702951607296E-06  4.03266155590416610E-06