
     Program PWSCF v.7.3.1 starts on  9May2024 at 15:27:45 

     This program is part of the open-source Quantum ESPRESSO suite
     for quantum simulation of materials; please cite
         "P. Giannozzi et al., J. Phys.:Condens. Matter 21 395502 (2009);
         "P. Giannozzi et al., J. Phys.:Condens. Matter 29 465901 (2017);
         "P. Giannozzi et al., J. Chem. Phys. 152 154105 (2020);
          URL http://www.quantum-espresso.org", 
     in publications or presentations arising from this work. More details at
     http://www.quantum-espresso.org/quote

     Parallel version (MPI), running on     4 processors

     MPI processes distributed on     1 nodes
     53935 MiB available memory on the printing compute node when the environment starts
 
     Waiting for input...
     Reading input from standard input
     Message from routine read_cards :
     DEPRECATED: no units specified in CELL_PARAMETERS card

     Current dimensions of program PWSCF are:
     Max number of different atomic species (ntypx) = 10
     Max number of k-points (npk) =  40000
     Max angular momentum in pseudopotentials (lmaxx) =  4
     Message from routine setup:
     using ibrav=0 with symmetry is DISCOURAGED, use correct ibrav instead
 
     R & G space division:  proc/nbgrp/npool/nimage =       4
     Subspace diagonalization in iterative solution of the eigenvalue problem:
     a serial algorithm will be used

 
     Parallelization info
     --------------------
     sticks:   dense  smooth     PW     G-vecs:    dense   smooth      PW
     Min         296     296     90                 9074     9074    1534
     Max         298     298     91                 9075     9075    1539
     Sum        1189    1189    361                36297    36297    6145
 
     Using Slab Decomposition
 


     bravais-lattice index     =            0
     lattice parameter (alat)  =       4.6415  a.u.
     unit-cell volume          =     762.0804 (a.u.)^3
     number of atoms/cell      =            9
     number of atomic types    =            2
     number of electrons       =        48.00
     number of Kohn-Sham states=           24
     kinetic-energy cutoff     =      50.0000  Ry
     charge density cutoff     =     200.0000  Ry
     scf convergence threshold =      1.0E-10
     mixing beta               =       0.7000
     number of iterations used =            8  plain     mixing
     Exchange-correlation=  SLA  PW   PBX  PBC
                           (   1   4   3   4   0   0   0)

     celldm(1)=   4.641538  celldm(2)=   0.000000  celldm(3)=   0.000000
     celldm(4)=   0.000000  celldm(5)=   0.000000  celldm(6)=   0.000000

     crystal axes: (cart. coord. in units of alat)
               a(1) = (   1.000000  -1.732058   0.000000 )  
               a(2) = (   1.000000   1.732058   0.000000 )  
               a(3) = (   0.000000   0.000000   2.200000 )  

     reciprocal axes: (cart. coord. in units 2 pi/alat)
               b(1) = (  0.500000 -0.288674  0.000000 )  
               b(2) = (  0.500000  0.288674  0.000000 )  
               b(3) = (  0.000000  0.000000  0.454545 )  


     PseudoPot. # 1 for Si read from file:
     ./pseudo/Si.pbe-tm-gipaw.UPF
     MD5 check sum: 744ed8b2dc623e0d56f5dfff7afbe95f
     Pseudo is Norm-conserving, Zval =  4.0
     Generated by new atomic code, or converted to UPF format
     Using radial grid of 1141 points,  2 beta functions with: 
                l(1) =   0
                l(2) =   1

     PseudoPot. # 2 for O  read from file:
     ./pseudo/O.pbe-tm-gipaw.UPF
     MD5 check sum: 12b6f10dd62b8d732352127d12073df4
     Pseudo is Norm-conserving, Zval =  6.0
     Generated by new atomic code, or converted to UPF format
     Using radial grid of 1095 points,  1 beta functions with: 
                l(1) =   0

     atomic species   valence    mass     pseudopotential
     Si                4.00    28.08600     Si( 1.00)
     O                 6.00    15.99900     O ( 1.00)

      2 Sym. Ops. (no inversion) found


                                    s                        frac. trans.

      isym =  1     identity                                     

 cryst.   s( 1) = (     1          0          0      )
                  (     0          1          0      )
                  (     0          0          1      )

 cart.    s( 1) = (  1.0000000  0.0000000  0.0000000 )
                  (  0.0000000  1.0000000  0.0000000 )
                  (  0.0000000  0.0000000  1.0000000 )


      isym =  2     180 deg rotation - cart. axis [1,0,0]        

 cryst.   s( 2) = (     0          1          0      )
                  (     1          0          0      )
                  (     0          0         -1      )

 cart.    s( 2) = (  1.0000000  0.0000000  0.0000000 )
                  (  0.0000000 -1.0000000  0.0000000 )
                  (  0.0000000  0.0000000 -1.0000000 )


   Cartesian axes

     site n.     atom                  positions (alat units)
         1        Si     tau(   1) = (   0.4701000  -0.8142405   0.7333333  )
         2        Si     tau(   2) = (   0.4701000   0.8142405   1.4666667  )
         3        Si     tau(   3) = (  -0.9402000   0.0000000   0.0000000  )
         4        O      tau(   4) = (   0.6813000  -0.2537465   0.4716800  )
         5        O      tau(   5) = (  -0.1209000   0.7168988   1.2050133  )
         6        O      tau(   6) = (  -0.5604000  -0.4631523   1.9383467  )
         7        O      tau(   7) = (   0.6813000   0.2537465  -0.4716800  )
         8        O      tau(   8) = (  -0.1209000  -0.7168988   0.9949867  )
         9        O      tau(   9) = (  -0.5604000   0.4631523   0.2616533  )

   Crystallographic axes

     site n.     atom                  positions (cryst. coord.)
         1        Si     tau(   1) = (  0.4701000  0.0000000  0.3333333  )
         2        Si     tau(   2) = (  0.0000000  0.4701000  0.6666667  )
         3        Si     tau(   3) = ( -0.4701000 -0.4701000  0.0000000  )
         4        O      tau(   4) = (  0.4139000  0.2674000  0.2144000  )
         5        O      tau(   5) = ( -0.2674000  0.1465000  0.5477333  )
         6        O      tau(   6) = ( -0.1465000 -0.4139000  0.8810667  )
         7        O      tau(   7) = (  0.2674000  0.4139000 -0.2144000  )
         8        O      tau(   8) = (  0.1465000 -0.2674000  0.4522667  )
         9        O      tau(   9) = ( -0.4139000 -0.1465000  0.1189333  )

     number of k points=    10
                       cart. coord. in units 2pi/alat
        k(    1) = (   0.1666667   0.0000000   0.0757576), wk =   0.2962963
        k(    2) = (   0.1666667   0.0000000  -0.2272727), wk =   0.1481481
        k(    3) = (  -0.1666667  -0.1924493   0.0757576), wk =   0.2962963
        k(    4) = (  -0.1666667  -0.1924493  -0.2272727), wk =   0.2962963
        k(    5) = (  -0.0000000  -0.0962246   0.0757576), wk =   0.1481481
        k(    6) = (  -0.0000000  -0.0962246  -0.2272727), wk =   0.1481481
        k(    7) = (  -0.5000000   0.0000000   0.0757576), wk =   0.1481481
        k(    8) = (  -0.5000000   0.0000000  -0.2272727), wk =   0.0740741
        k(    9) = (   0.1666667  -0.1924493  -0.0757576), wk =   0.2962963
        k(   10) = (   0.0000000  -0.0962246  -0.0757576), wk =   0.1481481

                       cryst. coord.
        k(    1) = (   0.1666667   0.1666667   0.1666667), wk =   0.2962963
        k(    2) = (   0.1666667   0.1666667  -0.5000000), wk =   0.1481481
        k(    3) = (   0.1666667  -0.5000000   0.1666667), wk =   0.2962963
        k(    4) = (   0.1666667  -0.5000000  -0.5000000), wk =   0.2962963
        k(    5) = (   0.1666667  -0.1666667   0.1666667), wk =   0.1481481
        k(    6) = (   0.1666667  -0.1666667  -0.5000000), wk =   0.1481481
        k(    7) = (  -0.5000000  -0.5000000   0.1666667), wk =   0.1481481
        k(    8) = (  -0.5000000  -0.5000000  -0.5000000), wk =   0.0740741
        k(    9) = (   0.5000000  -0.1666667  -0.1666667), wk =   0.2962963
        k(   10) = (   0.1666667  -0.1666667  -0.1666667), wk =   0.1481481

     Dense  grid:    36297 G-vectors     FFT dimensions: (  45,  45,  45)

     Dynamical RAM for                 wfc:       0.42 MB

     Dynamical RAM for     wfc (w. buffer):       4.58 MB

     Dynamical RAM for           str. fact:       0.28 MB

     Dynamical RAM for           local pot:       0.00 MB

     Dynamical RAM for          nlocal pot:       0.31 MB

     Dynamical RAM for                qrad:       0.19 MB

     Dynamical RAM for          rho,v,vnew:       0.97 MB

     Dynamical RAM for               rhoin:       0.32 MB

     Dynamical RAM for            rho*nmix:       2.22 MB

     Dynamical RAM for           G-vectors:       0.59 MB

     Dynamical RAM for          h,s,v(r/c):       0.11 MB

     Dynamical RAM for          <psi|beta>:       0.01 MB

     Dynamical RAM for                 psi:       0.83 MB

     Dynamical RAM for                hpsi:       0.83 MB

     Dynamical RAM for      wfcinit/wfcrot:       1.83 MB

     Estimated static dynamical RAM per process >       8.59 MB

     Estimated max dynamical RAM per process >      12.64 MB

     Estimated total dynamical RAM >      50.54 MB

     Initial potential from superposition of free atoms

     starting charge      40.4147, renormalised to      48.0000
     Starting wfcs are   51 randomized atomic wfcs

     total cpu time spent up to now is        0.3 secs

     Self-consistent Calculation

     iteration #  1     ecut=    50.00 Ry     beta= 0.70
     Davidson diagonalization with overlap

---- Real-time Memory Report at c_bands before calling an iterative solver
            59 MiB given to the printing process from OS
             0 MiB allocation reported by mallinfo(arena+hblkhd)
         53856 MiB available memory on the node where the printing process lives
------------------
     ethr =  1.00E-04,  avg # of iterations =  4.9

     total cpu time spent up to now is        0.7 secs

     total energy              =    -216.22507320 Ry
     estimated scf accuracy    <       0.46595337 Ry

     iteration #  2     ecut=    50.00 Ry     beta= 0.70
     Davidson diagonalization with overlap

---- Real-time Memory Report at c_bands before calling an iterative solver
            62 MiB given to the printing process from OS
             0 MiB allocation reported by mallinfo(arena+hblkhd)
         53843 MiB available memory on the node where the printing process lives
------------------
     ethr =  9.71E-04,  avg # of iterations =  2.0

     total cpu time spent up to now is        1.0 secs

     total energy              =    -216.28831215 Ry
     estimated scf accuracy    <       0.08075783 Ry

     iteration #  3     ecut=    50.00 Ry     beta= 0.70
     Davidson diagonalization with overlap

---- Real-time Memory Report at c_bands before calling an iterative solver
            63 MiB given to the printing process from OS
             0 MiB allocation reported by mallinfo(arena+hblkhd)
         53843 MiB available memory on the node where the printing process lives
------------------
     ethr =  1.68E-04,  avg # of iterations =  2.0

     total cpu time spent up to now is        1.3 secs

     total energy              =    -216.30456125 Ry
     estimated scf accuracy    <       0.00699001 Ry

     iteration #  4     ecut=    50.00 Ry     beta= 0.70
     Davidson diagonalization with overlap

---- Real-time Memory Report at c_bands before calling an iterative solver
            64 MiB given to the printing process from OS
             0 MiB allocation reported by mallinfo(arena+hblkhd)
         53841 MiB available memory on the node where the printing process lives
------------------
     ethr =  1.46E-05,  avg # of iterations =  1.4

     total cpu time spent up to now is        1.5 secs

     total energy              =    -216.30505030 Ry
     estimated scf accuracy    <       0.00023238 Ry

     iteration #  5     ecut=    50.00 Ry     beta= 0.70
     Davidson diagonalization with overlap

---- Real-time Memory Report at c_bands before calling an iterative solver
            64 MiB given to the printing process from OS
             0 MiB allocation reported by mallinfo(arena+hblkhd)
         53841 MiB available memory on the node where the printing process lives
------------------
     ethr =  4.84E-07,  avg # of iterations =  3.0

     total cpu time spent up to now is        1.9 secs

     total energy              =    -216.30518381 Ry
     estimated scf accuracy    <       0.00014816 Ry

     iteration #  6     ecut=    50.00 Ry     beta= 0.70
     Davidson diagonalization with overlap

---- Real-time Memory Report at c_bands before calling an iterative solver
            64 MiB given to the printing process from OS
             0 MiB allocation reported by mallinfo(arena+hblkhd)
         53840 MiB available memory on the node where the printing process lives
------------------
     ethr =  3.09E-07,  avg # of iterations =  2.0

     total cpu time spent up to now is        2.2 secs

     total energy              =    -216.30522372 Ry
     estimated scf accuracy    <       0.00001188 Ry

     iteration #  7     ecut=    50.00 Ry     beta= 0.70
     Davidson diagonalization with overlap

---- Real-time Memory Report at c_bands before calling an iterative solver
            64 MiB given to the printing process from OS
             0 MiB allocation reported by mallinfo(arena+hblkhd)
         53838 MiB available memory on the node where the printing process lives
------------------
     ethr =  2.47E-08,  avg # of iterations =  2.0

     total cpu time spent up to now is        2.4 secs

     total energy              =    -216.30522593 Ry
     estimated scf accuracy    <       0.00000008 Ry

     iteration #  8     ecut=    50.00 Ry     beta= 0.70
     Davidson diagonalization with overlap

---- Real-time Memory Report at c_bands before calling an iterative solver
            65 MiB given to the printing process from OS
             0 MiB allocation reported by mallinfo(arena+hblkhd)
         53836 MiB available memory on the node where the printing process lives
------------------
     ethr =  1.68E-10,  avg # of iterations =  3.0

     total cpu time spent up to now is        2.8 secs

     total energy              =    -216.30522583 Ry
     estimated scf accuracy    <       0.00000035 Ry

     iteration #  9     ecut=    50.00 Ry     beta= 0.70
     Davidson diagonalization with overlap

---- Real-time Memory Report at c_bands before calling an iterative solver
            65 MiB given to the printing process from OS
             0 MiB allocation reported by mallinfo(arena+hblkhd)
         53836 MiB available memory on the node where the printing process lives
------------------
     ethr =  1.68E-10,  avg # of iterations =  3.0

     total cpu time spent up to now is        3.1 secs

     total energy              =    -216.30522592 Ry
     estimated scf accuracy    <       0.00000001 Ry

     iteration # 10     ecut=    50.00 Ry     beta= 0.70
     Davidson diagonalization with overlap

---- Real-time Memory Report at c_bands before calling an iterative solver
            65 MiB given to the printing process from OS
             0 MiB allocation reported by mallinfo(arena+hblkhd)
         53835 MiB available memory on the node where the printing process lives
------------------
     ethr =  2.49E-11,  avg # of iterations =  2.0

     total cpu time spent up to now is        3.4 secs

     total energy              =    -216.30522592 Ry
     estimated scf accuracy    <          1.9E-09 Ry

     iteration # 11     ecut=    50.00 Ry     beta= 0.70
     Davidson diagonalization with overlap

---- Real-time Memory Report at c_bands before calling an iterative solver
            65 MiB given to the printing process from OS
             0 MiB allocation reported by mallinfo(arena+hblkhd)
         53835 MiB available memory on the node where the printing process lives
------------------
     ethr =  3.86E-12,  avg # of iterations =  2.0

     total cpu time spent up to now is        3.6 secs

     End of self-consistent calculation

          k = 0.1667 0.0000 0.0758 (  4553 PWs)   bands (ev):

   -16.5038 -15.6490 -15.1061 -14.6170 -14.5866 -14.5511  -5.8909  -4.8712
    -3.3026  -2.8283  -2.5869  -2.3203  -0.5537  -0.1424   0.0280   0.2840
     0.5807   1.0200   1.1187   1.4017   1.6743   1.8251   2.2575   2.5520

     occupation numbers 
     1.0000   1.0000   1.0000   1.0000   1.0000   1.0000   1.0000   1.0000
     1.0000   1.0000   1.0000   1.0000   1.0000   1.0000   1.0000   1.0000
     1.0000   1.0000   1.0000   1.0000   1.0000   1.0000   1.0000   1.0000

          k = 0.1667 0.0000-0.2273 (  4560 PWs)   bands (ev):

   -16.2518 -16.0650 -14.9422 -14.6261 -14.5722 -14.5576  -6.1522  -4.1632
    -3.7995  -2.7561  -2.6978  -2.2217  -0.4747  -0.3966   0.2078   0.2640
     0.5917   1.0317   1.1822   1.3874   1.5477   2.0768   2.2320   2.3884

     occupation numbers 
     1.0000   1.0000   1.0000   1.0000   1.0000   1.0000   1.0000   1.0000
     1.0000   1.0000   1.0000   1.0000   1.0000   1.0000   1.0000   1.0000
     1.0000   1.0000   1.0000   1.0000   1.0000   1.0000   1.0000   1.0000

          k =-0.1667-0.1924 0.0758 (  4545 PWs)   bands (ev):

   -16.2776 -15.7810 -15.2252 -14.6300 -14.6062 -14.5650  -5.7528  -4.6517
    -3.6131  -2.8188  -2.5879  -2.1124  -0.4992  -0.2804  -0.0965   0.3355
     0.6159   0.8448   1.1728   1.3253   1.5869   1.9759   2.2087   2.5518

     occupation numbers 
     1.0000   1.0000   1.0000   1.0000   1.0000   1.0000   1.0000   1.0000
     1.0000   1.0000   1.0000   1.0000   1.0000   1.0000   1.0000   1.0000
     1.0000   1.0000   1.0000   1.0000   1.0000   1.0000   1.0000   1.0000

          k =-0.1667-0.1924-0.2273 (  4544 PWs)   bands (ev):

   -16.2106 -15.7984 -15.2783 -14.6561 -14.5859 -14.5777  -5.6105  -4.6148
    -3.8671  -2.6617  -2.5107  -2.3458  -0.6265  -0.4473   0.0820   0.4551
     0.6215   0.9361   1.4438   1.5295   1.6880   1.8700   2.0346   2.3013

     occupation numbers 
     1.0000   1.0000   1.0000   1.0000   1.0000   1.0000   1.0000   1.0000
     1.0000   1.0000   1.0000   1.0000   1.0000   1.0000   1.0000   1.0000
     1.0000   1.0000   1.0000   1.0000   1.0000   1.0000   1.0000   1.0000

          k =-0.0000-0.0962 0.0758 (  4560 PWs)   bands (ev):

   -16.6504 -15.6152 -14.9724 -14.5971 -14.5688 -14.5365  -6.0705  -4.9420
    -3.0956  -2.8507  -2.6519  -2.4320  -0.5087  -0.1425  -0.0001   0.3619
     0.7425   1.0444   1.1156   1.3358   1.6814   1.9052   2.2766   2.5201

     occupation numbers 
     1.0000   1.0000   1.0000   1.0000   1.0000   1.0000   1.0000   1.0000
     1.0000   1.0000   1.0000   1.0000   1.0000   1.0000   1.0000   1.0000
     1.0000   1.0000   1.0000   1.0000   1.0000   1.0000   1.0000   1.0000

          k =-0.0000-0.0962-0.2273 (  4538 PWs)   bands (ev):

   -16.2894 -16.2252 -14.7071 -14.6012 -14.5665 -14.5304  -6.5149  -3.8666
    -3.7062  -2.9068  -2.8587  -2.1175  -0.2633  -0.2468   0.0654   0.4579
     0.5314   0.9417   1.0117   1.2046   1.4676   2.2911   2.3213   2.4942

     occupation numbers 
     1.0000   1.0000   1.0000   1.0000   1.0000   1.0000   1.0000   1.0000
     1.0000   1.0000   1.0000   1.0000   1.0000   1.0000   1.0000   1.0000
     1.0000   1.0000   1.0000   1.0000   1.0000   1.0000   1.0000   1.0000

          k =-0.5000 0.0000 0.0758 (  4540 PWs)   bands (ev):

   -16.2721 -15.7959 -15.2120 -14.6347 -14.6028 -14.5672  -5.7378  -4.7381
    -3.4591  -2.8408  -2.6364  -2.1130  -0.4944  -0.3810   0.0376   0.2614
     0.6749   0.7996   1.0717   1.4544   1.6590   1.8470   2.2720   2.5411

     occupation numbers 
     1.0000   1.0000   1.0000   1.0000   1.0000   1.0000   1.0000   1.0000
     1.0000   1.0000   1.0000   1.0000   1.0000   1.0000   1.0000   1.0000
     1.0000   1.0000   1.0000   1.0000   1.0000   1.0000   1.0000   1.0000

          k =-0.5000 0.0000-0.2273 (  4536 PWs)   bands (ev):

   -16.2180 -15.7699 -15.3124 -14.6611 -14.5831 -14.5616  -5.6209  -4.6487
    -3.7853  -2.7273  -2.4557  -2.3449  -0.5930  -0.5738   0.1770   0.5085
     0.5213   1.0675   1.3497   1.4698   1.7302   1.7818   2.0215   2.4226

     occupation numbers 
     1.0000   1.0000   1.0000   1.0000   1.0000   1.0000   1.0000   1.0000
     1.0000   1.0000   1.0000   1.0000   1.0000   1.0000   1.0000   1.0000
     1.0000   1.0000   1.0000   1.0000   1.0000   1.0000   1.0000   1.0000

          k = 0.1667-0.1924-0.0758 (  4545 PWs)   bands (ev):

   -16.2753 -15.7893 -15.2146 -14.6336 -14.6083 -14.5640  -5.7524  -4.6500
    -3.6136  -2.8097  -2.5935  -2.1269  -0.5384  -0.2565  -0.0747   0.3972
     0.6011   0.8389   1.0723   1.3739   1.6281   1.9089   2.2807   2.5206

     occupation numbers 
     1.0000   1.0000   1.0000   1.0000   1.0000   1.0000   1.0000   1.0000
     1.0000   1.0000   1.0000   1.0000   1.0000   1.0000   1.0000   1.0000
     1.0000   1.0000   1.0000   1.0000   1.0000   1.0000   1.0000   1.0000

          k = 0.0000-0.0962-0.0758 (  4560 PWs)   bands (ev):

   -16.6508 -15.6109 -14.9827 -14.5970 -14.5569 -14.5419  -6.0709  -4.9417
    -3.1006  -2.8512  -2.6686  -2.4037  -0.4808  -0.1678   0.0058   0.3218
     0.6981   1.1153   1.1385   1.3133   1.7225   1.8600   2.2533   2.5466

     occupation numbers 
     1.0000   1.0000   1.0000   1.0000   1.0000   1.0000   1.0000   1.0000
     1.0000   1.0000   1.0000   1.0000   1.0000   1.0000   1.0000   1.0000
     1.0000   1.0000   1.0000   1.0000   1.0000   1.0000   1.0000   1.0000

     highest occupied level (ev):     2.5520

!    total energy              =    -216.30522592 Ry
     estimated scf accuracy    <          2.2E-12 Ry

     The total energy is the sum of the following terms:
     one-electron contribution =    -104.22895701 Ry
     hartree contribution      =      77.75158283 Ry
     xc contribution           =     -50.86588729 Ry
     ewald contribution        =    -138.96196445 Ry

     convergence has been achieved in  11 iterations

     Forces acting on atoms (cartesian axes, Ry/au):

     atom    1 type  1   force =     0.00076916   -0.00130707    0.00001750
     atom    2 type  1   force =     0.00076916    0.00130707   -0.00001750
     atom    3 type  1   force =    -0.00151494    0.00000000    0.00000000
     atom    4 type  2   force =    -0.00645320    0.01288671    0.00461743
     atom    5 type  2   force =    -0.00790499   -0.01205410    0.00460196
     atom    6 type  2   force =     0.01434650   -0.00092162    0.00441100
     atom    7 type  2   force =    -0.00645320   -0.01288671   -0.00461743
     atom    8 type  2   force =    -0.00790499    0.01205410   -0.00460196
     atom    9 type  2   force =     0.01434650    0.00092162   -0.00441100
     The non-local contrib.  to forces
     atom    1 type  1   force =    -0.00288613    0.00500208    0.00004150
     atom    2 type  1   force =    -0.00288613   -0.00500208   -0.00004150
     atom    3 type  1   force =     0.00577562    0.00000000    0.00000000
     atom    4 type  2   force =     0.40142364   -0.74604030   -0.49126496
     atom    5 type  2   force =     0.44539991    0.72075882   -0.49131089
     atom    6 type  2   force =    -0.84678877    0.02541052   -0.49130058
     atom    7 type  2   force =     0.40142364    0.74604030    0.49126496
     atom    8 type  2   force =     0.44539991   -0.72075882    0.49131089
     atom    9 type  2   force =    -0.84678877   -0.02541052    0.49130058
     The ionic contribution  to forces
     atom    1 type  1   force =    -0.02624446    0.04549851   -0.00003980
     atom    2 type  1   force =    -0.02624446   -0.04549851    0.00003980
     atom    3 type  1   force =     0.05254218    0.00000000   -0.00000000
     atom    4 type  2   force =    -2.01280941    2.87798355    1.63888123
     atom    5 type  2   force =    -1.48603190   -3.18215155    1.63886102
     atom    6 type  2   force =     3.49881469    0.30413529    1.63885390
     atom    7 type  2   force =    -2.01280941   -2.87798355   -1.63888123
     atom    8 type  2   force =    -1.48603190    3.18215155   -1.63886102
     atom    9 type  2   force =     3.49881469   -0.30413529   -1.63885390
     The local contribution  to forces
     atom    1 type  1   force =     0.02989975   -0.05180763    0.00001576
     atom    2 type  1   force =     0.02989975    0.05180763   -0.00001576
     atom    3 type  1   force =    -0.05983274   -0.00000000   -0.00000000
     atom    4 type  2   force =     1.60493233   -2.11905618   -1.14299883
     atom    5 type  2   force =     1.03272687    2.44933816   -1.14294787
     atom    6 type  2   force =    -2.63767890   -0.33046725   -1.14314185
     atom    7 type  2   force =     1.60493233    2.11905618    1.14299883
     atom    8 type  2   force =     1.03272687   -2.44933816    1.14294787
     atom    9 type  2   force =    -2.63767890    0.33046725    1.14314185
     The core correction contribution to forces
     atom    1 type  1   force =     0.00000000    0.00000000    0.00000000
     atom    2 type  1   force =     0.00000000    0.00000000    0.00000000
     atom    3 type  1   force =     0.00000000    0.00000000    0.00000000
     atom    4 type  2   force =     0.00000000    0.00000000    0.00000000
     atom    5 type  2   force =     0.00000000    0.00000000    0.00000000
     atom    6 type  2   force =     0.00000000    0.00000000    0.00000000
     atom    7 type  2   force =     0.00000000    0.00000000    0.00000000
     atom    8 type  2   force =     0.00000000    0.00000000    0.00000000
     atom    9 type  2   force =     0.00000000    0.00000000    0.00000000
     The Hubbard contrib.    to forces
     atom    1 type  1   force =     0.00000000    0.00000000    0.00000000
     atom    2 type  1   force =     0.00000000    0.00000000    0.00000000
     atom    3 type  1   force =     0.00000000    0.00000000    0.00000000
     atom    4 type  2   force =     0.00000000    0.00000000    0.00000000
     atom    5 type  2   force =     0.00000000    0.00000000    0.00000000
     atom    6 type  2   force =     0.00000000    0.00000000    0.00000000
     atom    7 type  2   force =     0.00000000    0.00000000    0.00000000
     atom    8 type  2   force =     0.00000000    0.00000000    0.00000000
     atom    9 type  2   force =     0.00000000    0.00000000    0.00000000
     The SCF correction term to forces
     atom    1 type  1   force =     0.00000001   -0.00000003    0.00000003
     atom    2 type  1   force =     0.00000001    0.00000003   -0.00000003
     atom    3 type  1   force =     0.00000000   -0.00000000   -0.00000000
     atom    4 type  2   force =     0.00000024   -0.00000036   -0.00000001
     atom    5 type  2   force =     0.00000014    0.00000048   -0.00000029
     atom    6 type  2   force =    -0.00000052   -0.00000018   -0.00000046
     atom    7 type  2   force =     0.00000024    0.00000036    0.00000001
     atom    8 type  2   force =     0.00000014   -0.00000048    0.00000029
     atom    9 type  2   force =    -0.00000052    0.00000018    0.00000046

     Total force =     0.037083     Total SCF correction =     0.000001


     Computing stress (Cartesian axis) and pressure

          total   stress  (Ry/bohr**3)                   (kbar)     P=     -232.93
  -0.00158141   0.00000000   0.00000000         -232.63        0.00        0.00
   0.00000000  -0.00158261   0.00000015            0.00     -232.81        0.02
   0.00000000   0.00000015  -0.00158625            0.00        0.02     -233.35

     kinetic stress (kbar)  19071.35      0.00      0.00
                                0.00  19071.08      0.02
                                0.00      0.02  19040.75

     local   stress (kbar) -17365.69      0.00      0.00
                                0.00 -17365.55      0.03
                                0.00      0.03 -18602.51

     nonloc. stress (kbar)   5510.24      0.00      0.00
                                0.00   5510.24     -0.00
                                0.00     -0.00   5518.83

     hartree stress (kbar)   4856.45     -0.00     -0.00
                               -0.00   4856.42     -0.01
                               -0.00     -0.01   5295.60

     exc-cor stress (kbar)  -3090.98     -0.00      0.00
                               -0.00  -3090.98     -0.00
                                0.00     -0.00  -3090.07

     corecor stress (kbar)      0.00      0.00      0.00
                                0.00      0.00      0.00
                                0.00      0.00      0.00

     ewald   stress (kbar)  -9214.00     -0.00      0.00
                               -0.00  -9214.01     -0.02
                                0.00     -0.02  -8395.95

     hubbard stress (kbar)      0.00      0.00      0.00
                                0.00      0.00      0.00
                                0.00      0.00      0.00

     DFT-D   stress (kbar)      0.00      0.00      0.00
                                0.00      0.00      0.00
                                0.00      0.00      0.00

     XDM     stress (kbar)      0.00      0.00      0.00
                                0.00      0.00      0.00
                                0.00      0.00      0.00

     dft-nl  stress (kbar)      0.00      0.00      0.00
                                0.00      0.00      0.00
                                0.00      0.00      0.00

     TS-vdW  stress (kbar)      0.00      0.00      0.00
                                0.00      0.00      0.00
                                0.00      0.00      0.00

     MDB     stress (kbar)      0.00      0.00      0.00
                                0.00      0.00      0.00
                                0.00      0.00      0.00

     3D-RISM stress (kbar)      0.00      0.00      0.00
                                0.00      0.00      0.00
                                0.00      0.00      0.00


     Writing all to output data dir /tmp/ceresoli/quartz.save/ :
     XML data file, charge density, pseudopotentials, collected wavefunctions
 
     init_run     :      0.21s CPU      0.23s WALL (       1 calls)
     electrons    :      3.23s CPU      3.36s WALL (       1 calls)
     forces       :      0.01s CPU      0.01s WALL (       1 calls)
     stress       :      0.06s CPU      0.06s WALL (       1 calls)

     Called by init_run:
     wfcinit      :      0.16s CPU      0.18s WALL (       1 calls)
     wfcinit:atom :      0.00s CPU      0.00s WALL (      10 calls)
     wfcinit:wfcr :      0.15s CPU      0.17s WALL (      10 calls)
     potinit      :      0.01s CPU      0.01s WALL (       1 calls)
     hinit0       :      0.01s CPU      0.01s WALL (       1 calls)

     Called by electrons:
     c_bands      :      2.77s CPU      2.87s WALL (      11 calls)
     sum_band     :      0.40s CPU      0.42s WALL (      11 calls)
     v_of_rho     :      0.05s CPU      0.06s WALL (      12 calls)
     v_h          :      0.00s CPU      0.00s WALL (      12 calls)
     v_xc         :      0.05s CPU      0.05s WALL (      12 calls)
     mix_rho      :      0.01s CPU      0.01s WALL (      11 calls)

     Called by c_bands:
     init_us_2    :      0.03s CPU      0.03s WALL (     250 calls)
     cegterg      :      2.74s CPU      2.84s WALL (     110 calls)

     Called by sum_band:
     sum_band:wei :      0.00s CPU      0.00s WALL (      11 calls)
     sum_band:loo :      0.39s CPU      0.41s WALL (      11 calls)
     sum_band:buf :      0.00s CPU      0.00s WALL (     110 calls)
     sum_band:ini :      0.01s CPU      0.01s WALL (     110 calls)

     Called by *egterg:
     cdiaghg      :      0.13s CPU      0.14s WALL (     383 calls)
     cegterg:over :      0.10s CPU      0.11s WALL (     273 calls)
     cegterg:upda :      0.05s CPU      0.05s WALL (     273 calls)
     cegterg:last :      0.09s CPU      0.09s WALL (     264 calls)
     h_psi        :      2.45s CPU      2.55s WALL (     393 calls)
     g_psi        :      0.01s CPU      0.01s WALL (     273 calls)

     Called by h_psi:
     h_psi:calbec :      0.04s CPU      0.04s WALL (     393 calls)
     vloc_psi     :      2.38s CPU      2.48s WALL (     393 calls)
     add_vuspsi   :      0.03s CPU      0.03s WALL (     393 calls)

     General routines
     calbec       :      0.04s CPU      0.04s WALL (     443 calls)
     fft          :      0.02s CPU      0.03s WALL (     127 calls)
     ffts         :      0.00s CPU      0.00s WALL (      11 calls)
     fftw         :      2.55s CPU      2.66s WALL (   20196 calls)
 
     Parallel routines
 
     PWSCF        :      3.56s CPU      3.73s WALL

 
   This run was terminated on:  15:27:49   9May2024            

=------------------------------------------------------------------------------=
   JOB DONE.
=------------------------------------------------------------------------------=
