
     Program PWSCF v.4.3        starts on 28Apr2011 at 16:13:30 

     This program is part of the open-source Quantum ESPRESSO suite
     for quantum simulation of materials; please cite
         "P. Giannozzi et al., J. Phys.:Condens. Matter 21 395502 (2009);
          URL http://www.quantum-espresso.org", 
     in publications or presentations arising from this work. More details at
     http://www.quantum-espresso.org/wiki/index.php/Citing_Quantum-ESPRESSO

     Parallel version (MPI), running on     4 processors
     R & G space division:  proc/pool =    4

     Current dimensions of program PWSCF are:
     Max number of different atomic species (ntypx) = 10
     Max number of k-points (npk) =  40000
     Max angular momentum in pseudopotentials (lmaxx) =  3
     Waiting for input...
Setting by parts:  SLA  PW   PBX  PBC
Setting by parts:  SLA  PW   PBX  PBC
Setting by parts:  SLA  PW   PBX  PBC
Setting by parts:  SLA  PW   PBX  PBC
Setting by parts:  SLA  PW   PBX  PBC
Setting by parts:  SLA  PW   PBX  PBC
Setting by parts:  SLA  PW   PBX  PBC
Setting by parts:  SLA  PW   PBX  PBC

     Subspace diagonalization in iterative solution of the eigenvalue problem:
     a serial algorithm will be used

 
   Stick Mesh
   ----------
   nst =  1189,  nstw =   151, nsts =   475
               n.st   n.stw   n.sts    n.g    n.gw   n.gs
   min         296      37     118    9074     407    2294
   max         298      38     119    9075     408    2305
       1189     151     475   36297    1631    9203
 


     bravais-lattice index     =            0
     lattice parameter (a_0)   =       4.6415  a.u.
     unit-cell volume          =     762.0804 (a.u.)^3
     number of atoms/cell      =            9
     number of atomic types    =            2
     number of electrons       =        48.00
     number of Kohn-Sham states=           24
     kinetic-energy cutoff     =      20.0000  Ry
     charge density cutoff     =     200.0000  Ry
     convergence threshold     =      1.0E-10
     mixing beta               =       0.7000
     number of iterations used =            8  plain     mixing
     Exchange-correlation      =  SLA  PW   PBX  PBC ( 1 4 3 4 0)
     EXX-fraction              =        0.00

     celldm(1)=   4.641538  celldm(2)=   0.000000  celldm(3)=   0.000000
     celldm(4)=   0.000000  celldm(5)=   0.000000  celldm(6)=   0.000000

     crystal axes: (cart. coord. in units of a_0)
               a(1) = (   1.000000  -1.732058   0.000000 )  
               a(2) = (   1.000000   1.732058   0.000000 )  
               a(3) = (   0.000000   0.000000   2.200000 )  

     reciprocal axes: (cart. coord. in units 2 pi/a_0)
               b(1) = (  0.500000 -0.288674  0.000000 )  
               b(2) = (  0.500000  0.288674  0.000000 )  
               b(3) = (  0.000000  0.000000  0.454545 )  


     PseudoPot. # 1 for Si read from file Si.pbe-tm-gipaw.UPF
     MD5 check sum: 744ed8b2dc623e0d56f5dfff7afbe95f
     Pseudo is Norm-conserving, Zval =  4.0
     Generated by new atomic code, or converted to UPF format
     Using radial grid of 1141 points,  2 beta functions with: 
                l(1) =   0
                l(2) =   1

     PseudoPot. # 2 for O  read from file O.pbe-rrkjus-gipaw-dc.UPF
     MD5 check sum: 076ad46ec5cb747f63175931fb098378
     Pseudo is Ultrasoft + core correction, Zval =  6.0
     Generated by new atomic code, or converted to UPF format
     Using radial grid of  685 points,  4 beta functions with: 
                l(1) =   0
                l(2) =   0
                l(3) =   1
                l(4) =   1
     Q(r) pseudized with 0 coefficients 


     atomic species   valence    mass     pseudopotential
        Si             4.00    28.08600     Si( 1.00)
        O              6.00    15.99900     O ( 1.00)

      2 Sym.Ops. (no inversion)

                                    s                        frac. trans.

      isym =  1     identity                                     

 cryst.   s( 1) = (     1          0          0      )    f =(  0.0000000 )
                  (     0          1          0      )       (  0.0000000 )
                  (     0          0          1      )       (  0.0000000 )

 cart.    s( 1) = (  1.0000000  0.0000000  0.0000000 )    f =(  0.0000000 )
                  (  0.0000000  1.0000000  0.0000000 )       (  0.0000000 )
                  (  0.0000000  0.0000000  1.0000000 )       (  0.0000000 )


      isym =  2     180 deg rotation - cart. axis [1,0,0]        

 cryst.   s( 2) = (     0          1          0      )    f =(  0.0000000 )
                  (     1          0          0      )       (  0.0000000 )
                  (     0          0         -1      )       (  0.0000000 )

 cart.    s( 2) = (  1.0000000  0.0000000  0.0000000 )    f =(  0.0000000 )
                  (  0.0000000 -1.0000000  0.0000000 )       (  0.0000000 )
                  (  0.0000000  0.0000000 -1.0000000 )       (  0.0000000 )


     point group C_2  (2)   
     there are  2 classes
     the character table:

       E     C2   
A      1.00  1.00
B      1.00 -1.00

     the symmetry operations in each class:
     E        1
     C2       2

   Cartesian axes

     site n.     atom                  positions (a_0 units)
         1           Si  tau(  1) = (   0.4701000  -0.8142405   0.7333333  )
         2           Si  tau(  2) = (   0.4701000   0.8142405   1.4666667  )
         3           Si  tau(  3) = (  -0.9402000   0.0000000   0.0000000  )
         4           O   tau(  4) = (   0.6813000  -0.2537465   0.4716800  )
         5           O   tau(  5) = (  -0.1209000   0.7168988   1.2050133  )
         6           O   tau(  6) = (  -0.5604000  -0.4631523   1.9383467  )
         7           O   tau(  7) = (   0.6813000   0.2537465  -0.4716800  )
         8           O   tau(  8) = (  -0.1209000  -0.7168988   0.9949867  )
         9           O   tau(  9) = (  -0.5604000   0.4631523   0.2616533  )

   Crystallographic axes

     site n.     atom                  positions (cryst. coord.)
         1           Si  tau(  1) = (  0.4701000  0.0000000  0.3333333  )
         2           Si  tau(  2) = (  0.0000000  0.4701000  0.6666667  )
         3           Si  tau(  3) = ( -0.4701000 -0.4701000  0.0000000  )
         4           O   tau(  4) = (  0.4139000  0.2674000  0.2144000  )
         5           O   tau(  5) = ( -0.2674000  0.1465000  0.5477333  )
         6           O   tau(  6) = ( -0.1465000 -0.4139000  0.8810667  )
         7           O   tau(  7) = (  0.2674000  0.4139000 -0.2144000  )
         8           O   tau(  8) = (  0.1465000 -0.2674000  0.4522667  )
         9           O   tau(  9) = ( -0.4139000 -0.1465000  0.1189333  )

     number of k points=    20
                       cart. coord. in units 2pi/a_0
        k(    1) = (   0.1250000   0.0000000   0.0568182), wk =   0.1250000
        k(    2) = (   0.1250000   0.0000000   0.1704545), wk =   0.1250000
        k(    3) = (   0.2500000   0.0721685   0.0568182), wk =   0.1250000
        k(    4) = (   0.2500000   0.0721685   0.1704545), wk =   0.1250000
        k(    5) = (  -0.1250000  -0.1443370   0.0568182), wk =   0.1250000
        k(    6) = (  -0.1250000  -0.1443370   0.1704545), wk =   0.1250000
        k(    7) = (   0.0000000  -0.0721685   0.0568182), wk =   0.0625000
        k(    8) = (   0.0000000  -0.0721685   0.1704545), wk =   0.0625000
        k(    9) = (   0.3750000   0.0000000   0.0568182), wk =   0.1250000
        k(   10) = (   0.3750000   0.0000000   0.1704545), wk =   0.1250000
        k(   11) = (   0.0000000  -0.2165054   0.0568182), wk =   0.0625000
        k(   12) = (   0.0000000  -0.2165054   0.1704545), wk =   0.0625000
        k(   13) = (  -0.2500000   0.0721685  -0.0568182), wk =   0.1250000
        k(   14) = (  -0.2500000   0.0721685  -0.1704545), wk =   0.1250000
        k(   15) = (   0.1250000  -0.1443370  -0.0568182), wk =   0.1250000
        k(   16) = (   0.1250000  -0.1443370  -0.1704545), wk =   0.1250000
        k(   17) = (   0.0000000  -0.0721685  -0.0568182), wk =   0.0625000
        k(   18) = (   0.0000000  -0.0721685  -0.1704545), wk =   0.0625000
        k(   19) = (   0.0000000  -0.2165054  -0.0568182), wk =   0.0625000
        k(   20) = (   0.0000000  -0.2165054  -0.1704545), wk =   0.0625000

                       cryst. coord.
        k(    1) = (   0.1250000   0.1250000   0.1250000), wk =   0.1250000
        k(    2) = (   0.1250000   0.1250000   0.3750000), wk =   0.1250000
        k(    3) = (   0.1250000   0.3750000   0.1250000), wk =   0.1250000
        k(    4) = (   0.1250000   0.3750000   0.3750000), wk =   0.1250000
        k(    5) = (   0.1250000  -0.3750000   0.1250000), wk =   0.1250000
        k(    6) = (   0.1250000  -0.3750000   0.3750000), wk =   0.1250000
        k(    7) = (   0.1250000  -0.1250000   0.1250000), wk =   0.0625000
        k(    8) = (   0.1250000  -0.1250000   0.3750000), wk =   0.0625000
        k(    9) = (   0.3750000   0.3750000   0.1250000), wk =   0.1250000
        k(   10) = (   0.3750000   0.3750000   0.3750000), wk =   0.1250000
        k(   11) = (   0.3750000  -0.3750000   0.1250000), wk =   0.0625000
        k(   12) = (   0.3750000  -0.3750000   0.3750000), wk =   0.0625000
        k(   13) = (  -0.3750000  -0.1250000  -0.1250000), wk =   0.1250000
        k(   14) = (  -0.3750000  -0.1250000  -0.3750000), wk =   0.1250000
        k(   15) = (   0.3750000  -0.1250000  -0.1250000), wk =   0.1250000
        k(   16) = (   0.3750000  -0.1250000  -0.3750000), wk =   0.1250000
        k(   17) = (   0.1250000  -0.1250000  -0.1250000), wk =   0.0625000
        k(   18) = (   0.1250000  -0.1250000  -0.3750000), wk =   0.0625000
        k(   19) = (   0.3750000  -0.3750000  -0.1250000), wk =   0.0625000
        k(   20) = (   0.3750000  -0.3750000  -0.3750000), wk =   0.0625000

     G cutoff =  109.1425  (  36297 G-vectors)     FFT grid: ( 45, 45, 45)
     G cutoff =   43.6570  (   9203 G-vectors)  smooth grid: ( 27, 27, 30)

     Largest allocated arrays     est. size (Mb)     dimensions
        Kohn-Sham Wavefunctions         0.11 Mb     (    298,  24)
        NL pseudopotentials             0.27 Mb     (    298,  60)
        Each V/rho on FFT grid          0.37 Mb     (  24300)
        Each G-vector array             0.07 Mb     (   9075)
        G-vector shells                 0.03 Mb     (   3583)
     Largest temporary arrays     est. size (Mb)     dimensions
        Auxiliary wavefunctions         0.44 Mb     (    298,  96)
        Each subspace H/S matrix        0.14 Mb     (     96,  96)
        Each <psi_i|beta_j> matrix      0.02 Mb     (     60,  24)
        Arrays for rho mixing           2.97 Mb     (  24300,   8)

     Initial potential from superposition of free atoms

     starting charge   46.41466, renormalised to   48.00000
     Starting wfc are   75 atomic wfcs

     total cpu time spent up to now is      3.12 secs

     per-process dynamical memory:    19.3 Mb

     Self-consistent Calculation

     iteration #  1     ecut=    20.00 Ry     beta=0.70
     Davidson diagonalization with overlap
     ethr =  1.00E-04,  avg # of iterations =  4.0

     total cpu time spent up to now is      8.03 secs

     total energy              =    -213.14551273 Ry
     Harris-Foulkes estimate   =    -213.23586185 Ry
     estimated scf accuracy    <       0.51056207 Ry

     iteration #  2     ecut=    20.00 Ry     beta=0.70
     Davidson diagonalization with overlap
     ethr =  1.06E-03,  avg # of iterations =  1.0

     total cpu time spent up to now is     10.58 secs

     total energy              =    -213.14516673 Ry
     Harris-Foulkes estimate   =    -213.15121198 Ry
     estimated scf accuracy    <       0.03857956 Ry

     iteration #  3     ecut=    20.00 Ry     beta=0.70
     Davidson diagonalization with overlap
     ethr =  8.04E-05,  avg # of iterations =  1.0

     total cpu time spent up to now is     12.75 secs

     total energy              =    -213.14601284 Ry
     Harris-Foulkes estimate   =    -213.14579484 Ry
     estimated scf accuracy    <       0.00012087 Ry

     iteration #  4     ecut=    20.00 Ry     beta=0.70
     Davidson diagonalization with overlap
     ethr =  2.52E-07,  avg # of iterations =  2.5

     total cpu time spent up to now is     16.15 secs

     total energy              =    -213.14607796 Ry
     Harris-Foulkes estimate   =    -213.14605633 Ry
     estimated scf accuracy    <       0.00000907 Ry

     iteration #  5     ecut=    20.00 Ry     beta=0.70
     Davidson diagonalization with overlap
     ethr =  1.89E-08,  avg # of iterations =  2.0

     total cpu time spent up to now is     19.57 secs

     total energy              =    -213.14608141 Ry
     Harris-Foulkes estimate   =    -213.14608094 Ry
     estimated scf accuracy    <       0.00000337 Ry

     iteration #  6     ecut=    20.00 Ry     beta=0.70
     Davidson diagonalization with overlap
     ethr =  7.03E-09,  avg # of iterations =  2.0

     total cpu time spent up to now is     22.66 secs

     total energy              =    -213.14608242 Ry
     Harris-Foulkes estimate   =    -213.14608219 Ry
     estimated scf accuracy    <       0.00000005 Ry

     iteration #  7     ecut=    20.00 Ry     beta=0.70
     Davidson diagonalization with overlap
     ethr =  1.11E-10,  avg # of iterations =  2.4

     total cpu time spent up to now is     26.10 secs

     total energy              =    -213.14608246 Ry
     Harris-Foulkes estimate   =    -213.14608245 Ry
     estimated scf accuracy    <       0.00000002 Ry

     iteration #  8     ecut=    20.00 Ry     beta=0.70
     Davidson diagonalization with overlap
     ethr =  3.38E-11,  avg # of iterations =  2.0

     total cpu time spent up to now is     28.86 secs

     total energy              =    -213.14608247 Ry
     Harris-Foulkes estimate   =    -213.14608246 Ry
     estimated scf accuracy    <          5.3E-10 Ry

     iteration #  9     ecut=    20.00 Ry     beta=0.70
     Davidson diagonalization with overlap
     ethr =  1.10E-12,  avg # of iterations =  2.0

     total cpu time spent up to now is     31.63 secs

     End of self-consistent calculation

          k = 0.1250 0.0000 0.0568 (  1157 PWs)   bands (ev):

   -17.9802 -17.0227 -16.6183 -16.2197 -16.1885 -16.1685  -5.8767  -5.0617
    -3.0572  -2.8164  -2.6134  -2.4039  -0.4298  -0.1023   0.1039   0.3948
     0.6476   1.0644   1.1309   1.5530   1.8693   1.9533   2.4454   2.7471

     occupation numbers 
     0.1250   0.1250   0.1250   0.1250   0.1250   0.1250   0.1250   0.1250
     0.1250   0.1250   0.1250   0.1250   0.1250   0.1250   0.1250   0.1250
     0.1250   0.1250   0.1250   0.1250   0.1250   0.1250   0.1250   0.1250

          k = 0.1250 0.0000 0.1705 (  1150 PWs)   bands (ev):

   -17.7834 -17.4228 -16.4012 -16.2166 -16.1907 -16.1676  -6.2638  -4.2462
    -3.5175  -2.8345  -2.6687  -2.1912  -0.4022  -0.1022   0.1783   0.3806
     0.6630   1.1200   1.2061   1.4372   1.7095   2.2142   2.4890   2.7396

     occupation numbers 
     0.1250   0.1250   0.1250   0.1250   0.1250   0.1250   0.1250   0.1250
     0.1250   0.1250   0.1250   0.1250   0.1250   0.1250   0.1250   0.1250
     0.1250   0.1250   0.1250   0.1250   0.1250   0.1250   0.1250   0.1250

          k = 0.2500 0.0722 0.0568 (  1147 PWs)   bands (ev):

   -17.6725 -17.2344 -16.7189 -16.2391 -16.2132 -16.1840  -5.7390  -4.6837
    -3.5076  -2.7592  -2.6030  -2.0537  -0.4266  -0.2269   0.0467   0.4836
     0.6505   0.9497   1.1184   1.5782   1.7488   2.1370   2.5550   2.7963

     occupation numbers 
     0.1250   0.1250   0.1250   0.1250   0.1250   0.1250   0.1250   0.1250
     0.1250   0.1250   0.1250   0.1250   0.1250   0.1250   0.1250   0.1250
     0.1250   0.1250   0.1250   0.1250   0.1250   0.1250   0.1250   0.1250

          k = 0.2500 0.0722 0.1705 (  1155 PWs)   bands (ev):

   -17.6236 -17.2331 -16.7750 -16.2575 -16.2131 -16.1867  -5.6326  -4.6752
    -3.8113  -2.7309  -2.3835  -2.3528  -0.5304  -0.3656   0.1386   0.5377
     0.7438   1.0118   1.4028   1.5847   1.8314   2.0552   2.2194   2.5144

     occupation numbers 
     0.1250   0.1250   0.1250   0.1250   0.1250   0.1250   0.1250   0.1250
     0.1250   0.1250   0.1250   0.1250   0.1250   0.1250   0.1250   0.1250
     0.1250   0.1250   0.1250   0.1250   0.1250   0.1250   0.1250   0.1250

          k =-0.1250-0.1443 0.0568 (  1151 PWs)   bands (ev):

   -17.8361 -17.0947 -16.6968 -16.2295 -16.2006 -16.1777  -5.7849  -4.8609
    -3.2825  -2.7952  -2.6033  -2.2192  -0.4016  -0.0947   0.0546   0.3116
     0.6486   0.9740   1.2125   1.5541   1.7603   2.0513   2.5220   2.7883

     occupation numbers 
     0.1250   0.1250   0.1250   0.1250   0.1250   0.1250   0.1250   0.1250
     0.1250   0.1250   0.1250   0.1250   0.1250   0.1250   0.1250   0.1250
     0.1250   0.1250   0.1250   0.1250   0.1250   0.1250   0.1250   0.1250

          k =-0.1250-0.1443 0.1705 (  1151 PWs)   bands (ev):

   -17.6949 -17.3367 -16.5937 -16.2353 -16.2008 -16.1816  -5.9425  -4.4402
    -3.6841  -2.7610  -2.5040  -2.2839  -0.4820  -0.2796   0.1857   0.3483
     0.7467   1.1675   1.2972   1.6055   1.8345   1.9768   2.3484   2.6684

     occupation numbers 
     0.1250   0.1250   0.1250   0.1250   0.1250   0.1250   0.1250   0.1250
     0.1250   0.1250   0.1250   0.1250   0.1250   0.1250   0.1250   0.1250
     0.1250   0.1250   0.1250   0.1250   0.1250   0.1250   0.1250   0.1250

          k = 0.0000-0.0722 0.0568 (  1161 PWs)   bands (ev):

   -18.0600 -16.9998 -16.5639 -16.2000 -16.1824 -16.1654  -5.9916  -5.1088
    -2.9931  -2.8098  -2.6727  -2.4536  -0.3789  -0.1331   0.0168   0.3409
     0.8732   1.1212   1.1404   1.5135   1.8401   2.0303   2.4300   2.6531

     occupation numbers 
     0.0625   0.0625   0.0625   0.0625   0.0625   0.0625   0.0625   0.0625
     0.0625   0.0625   0.0625   0.0625   0.0625   0.0625   0.0625   0.0625
     0.0625   0.0625   0.0625   0.0625   0.0625   0.0625   0.0625   0.0625

          k = 0.0000-0.0722 0.1705 (  1164 PWs)   bands (ev):

   -17.8490 -17.4666 -16.2905 -16.2011 -16.1929 -16.1620  -6.4692  -4.1823
    -3.4360  -2.9115  -2.8025  -2.2182  -0.3275  -0.0436   0.1301   0.4202
     0.6124   0.9605   1.0002   1.2329   1.5776   2.3307   2.5895   2.6970

     occupation numbers 
     0.0625   0.0625   0.0625   0.0625   0.0625   0.0625   0.0625   0.0625
     0.0625   0.0625   0.0625   0.0625   0.0625   0.0625   0.0625   0.0625
     0.0625   0.0625   0.0625   0.0625   0.0625   0.0625   0.0625   0.0625

          k = 0.3750 0.0000 0.0568 (  1151 PWs)   bands (ev):

   -17.5621 -17.3318 -16.7469 -16.2366 -16.2167 -16.1879  -5.7492  -4.4000
    -3.8638  -2.7279  -2.5734  -2.0234  -0.3961  -0.2037  -0.1041   0.5451
     0.6569   0.8127   1.2108   1.4070   1.6484   2.3270   2.4790   2.7595

     occupation numbers 
     0.1250   0.1250   0.1250   0.1250   0.1250   0.1250   0.1250   0.1250
     0.1250   0.1250   0.1250   0.1250   0.1250   0.1250   0.1250   0.1250
     0.1250   0.1250   0.1250   0.1250   0.1250   0.1250   0.1250   0.1250

          k = 0.3750 0.0000 0.1705 (  1142 PWs)   bands (ev):

   -17.5929 -17.1572 -16.8703 -16.2582 -16.2184 -16.1919  -5.4027  -4.7311
    -3.9237  -2.6040  -2.3733  -2.3110  -0.5282  -0.2341  -0.0290   0.7131
     0.8209   0.9558   1.5754   1.6239   1.8767   2.1340   2.2035   2.4664

     occupation numbers 
     0.1250   0.1250   0.1250   0.1250   0.1250   0.1250   0.1250   0.1250
     0.1250   0.1250   0.1250   0.1250   0.1250   0.1250   0.1250   0.1250
     0.1250   0.1250   0.1250   0.1250   0.1250   0.1250   0.1250   0.1250

          k = 0.0000-0.2165 0.0568 (  1152 PWs)   bands (ev):

   -17.7748 -17.1531 -16.6897 -16.2402 -16.2113 -16.1809  -5.7573  -4.8344
    -3.2990  -2.8177  -2.6612  -2.1750  -0.4740  -0.1415   0.1121   0.4070
     0.6852   0.9569   1.0707   1.7009   1.7660   1.9339   2.5722   2.7320

     occupation numbers 
     0.0625   0.0625   0.0625   0.0625   0.0625   0.0625   0.0625   0.0625
     0.0625   0.0625   0.0625   0.0625   0.0625   0.0625   0.0625   0.0625
     0.0625   0.0625   0.0625   0.0625   0.0625   0.0625   0.0625   0.0625

          k = 0.0000-0.2165 0.1705 (  1148 PWs)   bands (ev):

   -17.6633 -17.3093 -16.6534 -16.2478 -16.2052 -16.1753  -5.8161  -4.5241
    -3.6690  -2.7541  -2.4132  -2.3408  -0.5290  -0.3499   0.2324   0.4861
     0.7173   1.1465   1.3344   1.5978   1.8378   2.0699   2.3598   2.5590

     occupation numbers 
     0.0625   0.0625   0.0625   0.0625   0.0625   0.0625   0.0625   0.0625
     0.0625   0.0625   0.0625   0.0625   0.0625   0.0625   0.0625   0.0625
     0.0625   0.0625   0.0625   0.0625   0.0625   0.0625   0.0625   0.0625

          k =-0.2500 0.0722-0.0568 (  1147 PWs)   bands (ev):

   -17.6746 -17.2273 -16.7278 -16.2369 -16.2084 -16.1855  -5.7427  -4.6595
    -3.5067  -2.7663  -2.6070  -2.0496  -0.3754  -0.2373   0.0186   0.4055
     0.7128   0.9180   1.2180   1.5154   1.7289   2.1611   2.5112   2.8057

     occupation numbers 
     0.1250   0.1250   0.1250   0.1250   0.1250   0.1250   0.1250   0.1250
     0.1250   0.1250   0.1250   0.1250   0.1250   0.1250   0.1250   0.1250
     0.1250   0.1250   0.1250   0.1250   0.1250   0.1250   0.1250   0.1250

          k =-0.2500 0.0722-0.1705 (  1155 PWs)   bands (ev):

   -17.6284 -17.2250 -16.7829 -16.2539 -16.2116 -16.1877  -5.6403  -4.6774
    -3.8148  -2.7262  -2.4103  -2.3082  -0.5388  -0.3880   0.1133   0.5311
     0.7133   1.0868   1.4528   1.5936   1.7661   2.0126   2.2165   2.5863

     occupation numbers 
     0.1250   0.1250   0.1250   0.1250   0.1250   0.1250   0.1250   0.1250
     0.1250   0.1250   0.1250   0.1250   0.1250   0.1250   0.1250   0.1250
     0.1250   0.1250   0.1250   0.1250   0.1250   0.1250   0.1250   0.1250

          k = 0.1250-0.1443-0.0568 (  1151 PWs)   bands (ev):

   -17.8345 -17.1023 -16.6826 -16.2329 -16.2072 -16.1761  -5.7771  -4.8659
    -3.2870  -2.7725  -2.6183  -2.2302  -0.4289  -0.0868   0.0857   0.3849
     0.6416   0.9600   1.1186   1.6116   1.8079   1.9743   2.5556   2.7447

     occupation numbers 
     0.1250   0.1250   0.1250   0.1250   0.1250   0.1250   0.1250   0.1250
     0.1250   0.1250   0.1250   0.1250   0.1250   0.1250   0.1250   0.1250
     0.1250   0.1250   0.1250   0.1250   0.1250   0.1250   0.1250   0.1250

          k = 0.1250-0.1443-0.1705 (  1151 PWs)   bands (ev):

   -17.6919 -17.3459 -16.5831 -16.2381 -16.2050 -16.1786  -5.9384  -4.4375
    -3.6671  -2.7481  -2.5119  -2.3044  -0.5324  -0.2856   0.2030   0.4059
     0.7720   1.1293   1.2811   1.5883   1.8140   2.0435   2.4225   2.5726

     occupation numbers 
     0.1250   0.1250   0.1250   0.1250   0.1250   0.1250   0.1250   0.1250
     0.1250   0.1250   0.1250   0.1250   0.1250   0.1250   0.1250   0.1250
     0.1250   0.1250   0.1250   0.1250   0.1250   0.1250   0.1250   0.1250

          k = 0.0000-0.0722-0.0568 (  1161 PWs)   bands (ev):

   -18.0610 -16.9971 -16.5649 -16.2034 -16.1773 -16.1662  -5.9792  -5.1016
    -2.9920  -2.8407  -2.6737  -2.4303  -0.3382  -0.1544   0.0297   0.3600
     0.8355   1.1205   1.1432   1.4983   1.8346   2.0027   2.4268   2.6369

     occupation numbers 
     0.0625   0.0625   0.0625   0.0625   0.0625   0.0625   0.0625   0.0625
     0.0625   0.0625   0.0625   0.0625   0.0625   0.0625   0.0625   0.0625
     0.0625   0.0625   0.0625   0.0625   0.0625   0.0625   0.0625   0.0625

          k = 0.0000-0.0722-0.1705 (  1164 PWs)   bands (ev):

   -17.8490 -17.4657 -16.2948 -16.2037 -16.1858 -16.1639  -6.4725  -4.1696
    -3.4183  -2.9308  -2.8179  -2.2005  -0.2954   0.0009   0.0877   0.3900
     0.5938   0.9578   1.0342   1.1986   1.5871   2.3227   2.5635   2.7325

     occupation numbers 
     0.0625   0.0625   0.0625   0.0625   0.0625   0.0625   0.0625   0.0625
     0.0625   0.0625   0.0625   0.0625   0.0625   0.0625   0.0625   0.0625
     0.0625   0.0625   0.0625   0.0625   0.0625   0.0625   0.0625   0.0625

          k = 0.0000-0.2165-0.0568 (  1152 PWs)   bands (ev):

   -17.7788 -17.1375 -16.7136 -16.2336 -16.1993 -16.1854  -5.7610  -4.8276
    -3.3036  -2.8418  -2.6263  -2.1436  -0.4215  -0.1152   0.0596   0.2483
     0.7086   0.9667   1.2033   1.6131   1.7048   2.0670   2.4577   2.8015

     occupation numbers 
     0.0625   0.0625   0.0625   0.0625   0.0625   0.0625   0.0625   0.0625
     0.0625   0.0625   0.0625   0.0625   0.0625   0.0625   0.0625   0.0625
     0.0625   0.0625   0.0625   0.0625   0.0625   0.0625   0.0625   0.0625

          k = 0.0000-0.2165-0.1705 (  1148 PWs)   bands (ev):

   -17.6708 -17.2900 -16.6715 -16.2415 -16.2010 -16.1794  -5.8308  -4.5221
    -3.6762  -2.7825  -2.4401  -2.2789  -0.4731  -0.4032   0.2429   0.4153
     0.7053   1.2185   1.3892   1.6274   1.8164   1.9582   2.3039   2.7132

     occupation numbers 
     0.0625   0.0625   0.0625   0.0625   0.0625   0.0625   0.0625   0.0625
     0.0625   0.0625   0.0625   0.0625   0.0625   0.0625   0.0625   0.0625
     0.0625   0.0625   0.0625   0.0625   0.0625   0.0625   0.0625   0.0625

!    total energy              =    -213.14608247 Ry
     Harris-Foulkes estimate   =    -213.14608247 Ry
     estimated scf accuracy    <          3.1E-11 Ry

     The total energy is the sum of the following terms:

     one-electron contribution =     -97.33575445 Ry
     hartree contribution      =      73.16979179 Ry
     xc contribution           =     -50.01815535 Ry
     ewald contribution        =    -138.96196445 Ry

     convergence has been achieved in   9 iterations

     Forces acting on atoms (Ry/au):

     atom   1 type  1   force =     0.00367482   -0.00616642    0.00002114
     atom   2 type  1   force =     0.00367482    0.00616642   -0.00002114
     atom   3 type  1   force =    -0.00684348    0.00000000    0.00000000
     atom   4 type  2   force =    -0.01962136    0.03392425    0.01867407
     atom   5 type  2   force =    -0.01969783   -0.03306116    0.01882274
     atom   6 type  2   force =     0.03906611   -0.00083529    0.01904044
     atom   7 type  2   force =    -0.01962136   -0.03392425   -0.01867407
     atom   8 type  2   force =    -0.01969783    0.03306116   -0.01882274
     atom   9 type  2   force =     0.03906611    0.00083529   -0.01904044

     Total force =     0.106623     Total SCF correction =     0.000003


     entering subroutine stress ...

          total   stress  (Ry/bohr**3)                   (kbar)     P=-1689.40
  -0.01149226   0.00000000   0.00000000      -1690.57      0.00      0.00
   0.00000000  -0.01151306  -0.00000113          0.00  -1693.63     -0.17
   0.00000000  -0.00000113  -0.01144756          0.00     -0.17  -1683.99

     kinetic stress (kbar)  15125.73      0.00      0.00
                                0.00  15123.84     -0.06
                                0.00     -0.06  15103.57

     local   stress (kbar) -11216.67      0.00      0.00
                                0.00 -11217.74     -0.12
                                0.00     -0.12 -12461.92

     nonloc. stress (kbar)   2090.83      0.00      0.00
                                0.00   2090.27     -0.02
                                0.00     -0.02   2102.75

     hartree stress (kbar)   4560.31      0.00      0.00
                                0.00   4560.76      0.06
                                0.00      0.06   5002.95

     exc-cor stress (kbar)  -3031.23      0.00      0.00
                                0.00  -3031.21      0.00
                                0.00      0.00  -3029.86

     corecor stress (kbar)     -5.54      0.00      0.00
                                0.00     -5.54      0.00
                                0.00      0.00     -5.54

     ewald   stress (kbar)  -9213.99      0.00      0.00
                                0.00  -9214.01     -0.02
                                0.00     -0.02  -8395.95

     hubbard stress (kbar)      0.00      0.00      0.00
                                0.00      0.00      0.00
                                0.00      0.00      0.00

     london  stress (kbar)      0.00      0.00      0.00
                                0.00      0.00      0.00
                                0.00      0.00      0.00

     dft-nl  stress (kbar)      0.00      0.00      0.00
                                0.00      0.00      0.00
                                0.00      0.00      0.00



     Writing output data file quartz.save
 
     init_run     :      1.34s CPU      2.96s WALL (       1 calls)
     electrons    :     11.66s CPU     28.52s WALL (       1 calls)
     forces       :      0.29s CPU      0.61s WALL (       1 calls)
     stress       :      0.54s CPU      1.20s WALL (       1 calls)

     Called by init_run:
     wfcinit      :      0.98s CPU      2.14s WALL (       1 calls)
     potinit      :      0.12s CPU      0.25s WALL (       1 calls)

     Called by electrons:
     c_bands      :      9.43s CPU     23.40s WALL (       9 calls)
     sum_band     :      1.65s CPU      3.78s WALL (       9 calls)
     v_of_rho     :      0.20s CPU      0.53s WALL (      10 calls)
     v_h          :      0.00s CPU      0.04s WALL (      10 calls)
     v_xc         :      0.23s CPU      0.57s WALL (      12 calls)
     newd         :      0.25s CPU      0.53s WALL (      10 calls)
     mix_rho      :      0.02s CPU      0.09s WALL (       9 calls)

     Called by c_bands:
     init_us_2    :      0.01s CPU      0.18s WALL (     420 calls)
     cegterg      :      9.37s CPU     22.00s WALL (     180 calls)

     Called by sum_band:
     sum_band:bec :      0.00s CPU      0.01s WALL (     180 calls)
     addusdens    :      0.22s CPU      0.46s WALL (       9 calls)

     Called by *egterg:
     h_psi        :      8.19s CPU     19.26s WALL (     578 calls)
     s_psi        :      0.12s CPU      0.24s WALL (     578 calls)
     g_psi        :      0.02s CPU      0.06s WALL (     378 calls)
     cdiaghg      :      0.86s CPU      2.03s WALL (     558 calls)
     cegterg:over :      0.46s CPU      0.88s WALL (     378 calls)
     cegterg:upda :      0.06s CPU      0.23s WALL (     378 calls)
     cegterg:last :      0.01s CPU      0.16s WALL (     200 calls)

     Called by h_psi:
     h_psi:vloc   :      7.71s CPU     17.78s WALL (     578 calls)
     h_psi:vnl    :      0.47s CPU      1.45s WALL (     578 calls)
     add_vuspsi   :      0.04s CPU      0.28s WALL (     578 calls)

     General routines
     calbec       :      0.65s CPU      1.61s WALL (     798 calls)
     fft          :      0.32s CPU      0.74s WALL (     181 calls)
     ffts         :      0.02s CPU      0.04s WALL (      19 calls)
     fftw         :      8.83s CPU     19.69s WALL (   32352 calls)
     interpolate  :      0.05s CPU      0.11s WALL (      19 calls)
     davcio       :      0.01s CPU      1.18s WALL (     600 calls)
 
     Parallel routines
     fft_scatter  :      7.68s CPU     14.45s WALL (   32552 calls)
 
     PWSCF        :    13.98s CPU        33.71s WALL

 
   This run was terminated on:  16:14: 3  28Apr2011            

=------------------------------------------------------------------------------=
   JOB DONE.
=------------------------------------------------------------------------------=
