
     Program PWSCF v.5.0        starts on 21Jun2012 at 10: 3:35 

     This program is part of the open-source Quantum ESPRESSO suite
     for quantum simulation of materials; please cite
         "P. Giannozzi et al., J. Phys.:Condens. Matter 21 395502 (2009);
          URL http://www.quantum-espresso.org", 
     in publications or presentations arising from this work. More details at
     http://www.quantum-espresso.org/quote.php

     Parallel version (MPI), running on     4 processors
     K-points division:     npool     =    4

     Current dimensions of program PWSCF are:
     Max number of different atomic species (ntypx) = 10
     Max number of k-points (npk) =  40000
     Max angular momentum in pseudopotentials (lmaxx) =  3
     Waiting for input...
     Reading input from standard input

     Subspace diagonalization in iterative solution of the eigenvalue problem:
     a serial algorithm will be used

 
     G-vector sticks info
     --------------------
     sticks:   dense  smooth     PW     G-vecs:    dense   smooth      PW
     Sum        1189     475    151                36297     9203    1497
 


     bravais-lattice index     =            0
     lattice parameter (alat)  =       4.6415  a.u.
     unit-cell volume          =     762.0804 (a.u.)^3
     number of atoms/cell      =            9
     number of atomic types    =            2
     number of electrons       =        48.00
     number of Kohn-Sham states=           24
     kinetic-energy cutoff     =      20.0000  Ry
     charge density cutoff     =     200.0000  Ry
     convergence threshold     =      1.0E-10
     mixing beta               =       0.7000
     number of iterations used =            8  plain     mixing
     Exchange-correlation      =  SLA  PW   PBX  PBC ( 1 4 3 4 0)
     EXX-fraction              =        0.00

     celldm(1)=   4.641538  celldm(2)=   0.000000  celldm(3)=   0.000000
     celldm(4)=   0.000000  celldm(5)=   0.000000  celldm(6)=   0.000000

     crystal axes: (cart. coord. in units of alat)
               a(1) = (   1.000000  -1.732058   0.000000 )  
               a(2) = (   1.000000   1.732058   0.000000 )  
               a(3) = (   0.000000   0.000000   2.200000 )  

     reciprocal axes: (cart. coord. in units 2 pi/alat)
               b(1) = (  0.500000 -0.288674  0.000000 )  
               b(2) = (  0.500000  0.288674  0.000000 )  
               b(3) = (  0.000000  0.000000  0.454545 )  


     PseudoPot. # 1 for Si read from file:
     ./pseudo/Si.pbe-tm-gipaw.UPF
     MD5 check sum: 744ed8b2dc623e0d56f5dfff7afbe95f
     Pseudo is Norm-conserving, Zval =  4.0
     Generated by new atomic code, or converted to UPF format
     Using radial grid of 1141 points,  2 beta functions with: 
                l(1) =   0
                l(2) =   1

     PseudoPot. # 2 for O  read from file:
     ./pseudo/O.pbe-rrkjus-gipaw-dc.UPF
     MD5 check sum: 076ad46ec5cb747f63175931fb098378
     Pseudo is Ultrasoft + core correction, Zval =  6.0
     Generated by new atomic code, or converted to UPF format
     Using radial grid of  685 points,  4 beta functions with: 
                l(1) =   0
                l(2) =   0
                l(3) =   1
                l(4) =   1
     Q(r) pseudized with 0 coefficients 


     atomic species   valence    mass     pseudopotential
        Si             4.00    28.08600     Si( 1.00)
        O              6.00    15.99900     O ( 1.00)

      2 Sym. Ops. (no inversion) found


                                    s                        frac. trans.

      isym =  1     identity                                     

 cryst.   s( 1) = (     1          0          0      )
                  (     0          1          0      )
                  (     0          0          1      )

 cart.    s( 1) = (  1.0000000  0.0000000  0.0000000 )
                  (  0.0000000  1.0000000  0.0000000 )
                  (  0.0000000  0.0000000  1.0000000 )


      isym =  2     180 deg rotation - cart. axis [1,0,0]        

 cryst.   s( 2) = (     0          1          0      )
                  (     1          0          0      )
                  (     0          0         -1      )

 cart.    s( 2) = (  1.0000000  0.0000000  0.0000000 )
                  (  0.0000000 -1.0000000  0.0000000 )
                  (  0.0000000  0.0000000 -1.0000000 )


     point group C_2  (2)   
     there are  2 classes
     the character table:

       E     C2   
A      1.00  1.00
B      1.00 -1.00

     the symmetry operations in each class:
     E        1
     C2       2

   Cartesian axes

     site n.     atom                  positions (alat units)
         1           Si  tau(   1) = (   0.4701000  -0.8142405   0.7333333  )
         2           Si  tau(   2) = (   0.4701000   0.8142405   1.4666667  )
         3           Si  tau(   3) = (  -0.9402000   0.0000000   0.0000000  )
         4           O   tau(   4) = (   0.6813000  -0.2537465   0.4716800  )
         5           O   tau(   5) = (  -0.1209000   0.7168988   1.2050133  )
         6           O   tau(   6) = (  -0.5604000  -0.4631523   1.9383467  )
         7           O   tau(   7) = (   0.6813000   0.2537465  -0.4716800  )
         8           O   tau(   8) = (  -0.1209000  -0.7168988   0.9949867  )
         9           O   tau(   9) = (  -0.5604000   0.4631523   0.2616533  )

   Crystallographic axes

     site n.     atom                  positions (cryst. coord.)
         1           Si  tau(   1) = (  0.4701000  0.0000000  0.3333333  )
         2           Si  tau(   2) = (  0.0000000  0.4701000  0.6666667  )
         3           Si  tau(   3) = ( -0.4701000 -0.4701000  0.0000000  )
         4           O   tau(   4) = (  0.4139000  0.2674000  0.2144000  )
         5           O   tau(   5) = ( -0.2674000  0.1465000  0.5477333  )
         6           O   tau(   6) = ( -0.1465000 -0.4139000  0.8810667  )
         7           O   tau(   7) = (  0.2674000  0.4139000 -0.2144000  )
         8           O   tau(   8) = (  0.1465000 -0.2674000  0.4522667  )
         9           O   tau(   9) = ( -0.4139000 -0.1465000  0.1189333  )

     number of k points=    20
                       cart. coord. in units 2pi/alat
        k(    1) = (   0.1250000   0.0000000   0.0568182), wk =   0.1250000
        k(    2) = (   0.1250000   0.0000000   0.1704545), wk =   0.1250000
        k(    3) = (   0.2500000   0.0721685   0.0568182), wk =   0.1250000
        k(    4) = (   0.2500000   0.0721685   0.1704545), wk =   0.1250000
        k(    5) = (  -0.1250000  -0.1443370   0.0568182), wk =   0.1250000
        k(    6) = (  -0.1250000  -0.1443370   0.1704545), wk =   0.1250000
        k(    7) = (   0.0000000  -0.0721685   0.0568182), wk =   0.0625000
        k(    8) = (   0.0000000  -0.0721685   0.1704545), wk =   0.0625000
        k(    9) = (   0.3750000   0.0000000   0.0568182), wk =   0.1250000
        k(   10) = (   0.3750000   0.0000000   0.1704545), wk =   0.1250000
        k(   11) = (   0.0000000  -0.2165054   0.0568182), wk =   0.0625000
        k(   12) = (   0.0000000  -0.2165054   0.1704545), wk =   0.0625000
        k(   13) = (  -0.2500000   0.0721685  -0.0568182), wk =   0.1250000
        k(   14) = (  -0.2500000   0.0721685  -0.1704545), wk =   0.1250000
        k(   15) = (   0.1250000  -0.1443370  -0.0568182), wk =   0.1250000
        k(   16) = (   0.1250000  -0.1443370  -0.1704545), wk =   0.1250000
        k(   17) = (   0.0000000  -0.0721685  -0.0568182), wk =   0.0625000
        k(   18) = (   0.0000000  -0.0721685  -0.1704545), wk =   0.0625000
        k(   19) = (   0.0000000  -0.2165054  -0.0568182), wk =   0.0625000
        k(   20) = (   0.0000000  -0.2165054  -0.1704545), wk =   0.0625000

                       cryst. coord.
        k(    1) = (   0.1250000   0.1250000   0.1250000), wk =   0.1250000
        k(    2) = (   0.1250000   0.1250000   0.3750000), wk =   0.1250000
        k(    3) = (   0.1250000   0.3750000   0.1250000), wk =   0.1250000
        k(    4) = (   0.1250000   0.3750000   0.3750000), wk =   0.1250000
        k(    5) = (   0.1250000  -0.3750000   0.1250000), wk =   0.1250000
        k(    6) = (   0.1250000  -0.3750000   0.3750000), wk =   0.1250000
        k(    7) = (   0.1250000  -0.1250000   0.1250000), wk =   0.0625000
        k(    8) = (   0.1250000  -0.1250000   0.3750000), wk =   0.0625000
        k(    9) = (   0.3750000   0.3750000   0.1250000), wk =   0.1250000
        k(   10) = (   0.3750000   0.3750000   0.3750000), wk =   0.1250000
        k(   11) = (   0.3750000  -0.3750000   0.1250000), wk =   0.0625000
        k(   12) = (   0.3750000  -0.3750000   0.3750000), wk =   0.0625000
        k(   13) = (  -0.3750000  -0.1250000  -0.1250000), wk =   0.1250000
        k(   14) = (  -0.3750000  -0.1250000  -0.3750000), wk =   0.1250000
        k(   15) = (   0.3750000  -0.1250000  -0.1250000), wk =   0.1250000
        k(   16) = (   0.3750000  -0.1250000  -0.3750000), wk =   0.1250000
        k(   17) = (   0.1250000  -0.1250000  -0.1250000), wk =   0.0625000
        k(   18) = (   0.1250000  -0.1250000  -0.3750000), wk =   0.0625000
        k(   19) = (   0.3750000  -0.3750000  -0.1250000), wk =   0.0625000
        k(   20) = (   0.3750000  -0.3750000  -0.3750000), wk =   0.0625000

     Dense  grid:    36297 G-vectors     FFT dimensions: (  45,  45,  45)

     Smooth grid:     9203 G-vectors     FFT dimensions: (  27,  27,  30)

     Largest allocated arrays     est. size (Mb)     dimensions
        Kohn-Sham Wavefunctions         0.43 Mb     (   1164,   24)
        NL pseudopotentials             1.07 Mb     (   1164,   60)
        Each V/rho on FFT grid          1.39 Mb     (  91125)
        Each G-vector array             0.28 Mb     (  36297)
        G-vector shells                 0.04 Mb     (   4934)
     Largest temporary arrays     est. size (Mb)     dimensions
        Auxiliary wavefunctions         1.71 Mb     (   1164,   96)
        Each subspace H/S matrix        0.14 Mb     (  96,  96)
        Each <psi_i|beta_j> matrix      0.02 Mb     (     60,   24)
        Arrays for rho mixing          11.12 Mb     (  91125,   8)

     Initial potential from superposition of free atoms

     starting charge   46.41466, renormalised to   48.00000
     Starting wfc are   75 randomized atomic wfcs

     total cpu time spent up to now is        1.7 secs

     per-process dynamical memory:    29.7 Mb

     Self-consistent Calculation

     iteration #  1     ecut=    20.00 Ry     beta=0.70
     Davidson diagonalization with overlap
     ethr =  1.00E-04,  avg # of iterations =  4.0

     total cpu time spent up to now is        3.4 secs

     total energy              =    -213.14551110 Ry
     Harris-Foulkes estimate   =    -213.23585884 Ry
     estimated scf accuracy    <       0.51057485 Ry

     iteration #  2     ecut=    20.00 Ry     beta=0.70
     Davidson diagonalization with overlap
     ethr =  1.06E-03,  avg # of iterations =  1.0

     total cpu time spent up to now is        4.4 secs

     total energy              =    -213.14516760 Ry
     Harris-Foulkes estimate   =    -213.15121249 Ry
     estimated scf accuracy    <       0.03857469 Ry

     iteration #  3     ecut=    20.00 Ry     beta=0.70
     Davidson diagonalization with overlap
     ethr =  8.04E-05,  avg # of iterations =  1.0

     total cpu time spent up to now is        5.4 secs

     total energy              =    -213.14601316 Ry
     Harris-Foulkes estimate   =    -213.14579510 Ry
     estimated scf accuracy    <       0.00012074 Ry

     iteration #  4     ecut=    20.00 Ry     beta=0.70
     Davidson diagonalization with overlap
     ethr =  2.52E-07,  avg # of iterations =  2.5

     total cpu time spent up to now is        6.7 secs

     total energy              =    -213.14607804 Ry
     Harris-Foulkes estimate   =    -213.14605645 Ry
     estimated scf accuracy    <       0.00000911 Ry

     iteration #  5     ecut=    20.00 Ry     beta=0.70
     Davidson diagonalization with overlap
     ethr =  1.90E-08,  avg # of iterations =  2.0

     total cpu time spent up to now is        7.9 secs

     total energy              =    -213.14608150 Ry
     Harris-Foulkes estimate   =    -213.14608107 Ry
     estimated scf accuracy    <       0.00000346 Ry

     iteration #  6     ecut=    20.00 Ry     beta=0.70
     Davidson diagonalization with overlap
     ethr =  7.21E-09,  avg # of iterations =  2.0

     total cpu time spent up to now is        9.2 secs

     total energy              =    -213.14608252 Ry
     Harris-Foulkes estimate   =    -213.14608229 Ry
     estimated scf accuracy    <       0.00000005 Ry

     iteration #  7     ecut=    20.00 Ry     beta=0.70
     Davidson diagonalization with overlap
     ethr =  1.07E-10,  avg # of iterations =  2.5

     total cpu time spent up to now is       10.5 secs

     total energy              =    -213.14608256 Ry
     Harris-Foulkes estimate   =    -213.14608255 Ry
     estimated scf accuracy    <       0.00000002 Ry

     iteration #  8     ecut=    20.00 Ry     beta=0.70
     Davidson diagonalization with overlap
     ethr =  3.25E-11,  avg # of iterations =  2.0

     total cpu time spent up to now is       11.7 secs

     total energy              =    -213.14608257 Ry
     Harris-Foulkes estimate   =    -213.14608257 Ry
     estimated scf accuracy    <          6.2E-10 Ry

     iteration #  9     ecut=    20.00 Ry     beta=0.70
     Davidson diagonalization with overlap
     ethr =  1.29E-12,  avg # of iterations =  2.0

     total cpu time spent up to now is       12.9 secs

     End of self-consistent calculation

          k = 0.1250 0.0000 0.0568 (  1157 PWs)   bands (ev):

   -17.9802 -17.0227 -16.6183 -16.2197 -16.1885 -16.1685  -5.8767  -5.0617
    -3.0572  -2.8164  -2.6134  -2.4039  -0.4298  -0.1024   0.1039   0.3948
     0.6476   1.0644   1.1309   1.5530   1.8693   1.9533   2.4454   2.7471

     occupation numbers 
     0.1250   0.1250   0.1250   0.1250   0.1250   0.1250   0.1250   0.1250
     0.1250   0.1250   0.1250   0.1250   0.1250   0.1250   0.1250   0.1250
     0.1250   0.1250   0.1250   0.1250   0.1250   0.1250   0.1250   0.1250

          k = 0.1250 0.0000 0.1705 (  1150 PWs)   bands (ev):

   -17.7834 -17.4228 -16.4013 -16.2166 -16.1907 -16.1676  -6.2638  -4.2462
    -3.5175  -2.8345  -2.6687  -2.1912  -0.4022  -0.1022   0.1783   0.3806
     0.6630   1.1200   1.2061   1.4372   1.7095   2.2142   2.4890   2.7396

     occupation numbers 
     0.1250   0.1250   0.1250   0.1250   0.1250   0.1250   0.1250   0.1250
     0.1250   0.1250   0.1250   0.1250   0.1250   0.1250   0.1250   0.1250
     0.1250   0.1250   0.1250   0.1250   0.1250   0.1250   0.1250   0.1250

          k = 0.2500 0.0722 0.0568 (  1147 PWs)   bands (ev):

   -17.6725 -17.2344 -16.7190 -16.2391 -16.2132 -16.1840  -5.7390  -4.6837
    -3.5076  -2.7592  -2.6030  -2.0538  -0.4266  -0.2269   0.0467   0.4836
     0.6505   0.9497   1.1184   1.5782   1.7488   2.1370   2.5550   2.7963

     occupation numbers 
     0.1250   0.1250   0.1250   0.1250   0.1250   0.1250   0.1250   0.1250
     0.1250   0.1250   0.1250   0.1250   0.1250   0.1250   0.1250   0.1250
     0.1250   0.1250   0.1250   0.1250   0.1250   0.1250   0.1250   0.1250

          k = 0.2500 0.0722 0.1705 (  1155 PWs)   bands (ev):

   -17.6236 -17.2331 -16.7750 -16.2575 -16.2131 -16.1867  -5.6326  -4.6752
    -3.8113  -2.7309  -2.3835  -2.3528  -0.5304  -0.3656   0.1386   0.5377
     0.7438   1.0118   1.4028   1.5847   1.8313   2.0552   2.2194   2.5144

     occupation numbers 
     0.1250   0.1250   0.1250   0.1250   0.1250   0.1250   0.1250   0.1250
     0.1250   0.1250   0.1250   0.1250   0.1250   0.1250   0.1250   0.1250
     0.1250   0.1250   0.1250   0.1250   0.1250   0.1250   0.1250   0.1250

          k =-0.1250-0.1443 0.0568 (  1151 PWs)   bands (ev):

   -17.8361 -17.0947 -16.6968 -16.2295 -16.2006 -16.1777  -5.7849  -4.8609
    -3.2826  -2.7952  -2.6033  -2.2192  -0.4016  -0.0947   0.0546   0.3116
     0.6486   0.9740   1.2125   1.5541   1.7603   2.0513   2.5220   2.7883

     occupation numbers 
     0.1250   0.1250   0.1250   0.1250   0.1250   0.1250   0.1250   0.1250
     0.1250   0.1250   0.1250   0.1250   0.1250   0.1250   0.1250   0.1250
     0.1250   0.1250   0.1250   0.1250   0.1250   0.1250   0.1250   0.1250

          k =-0.1250-0.1443 0.1705 (  1151 PWs)   bands (ev):

   -17.6949 -17.3368 -16.5938 -16.2353 -16.2008 -16.1816  -5.9425  -4.4402
    -3.6842  -2.7610  -2.5040  -2.2840  -0.4821  -0.2796   0.1857   0.3483
     0.7467   1.1675   1.2972   1.6055   1.8345   1.9768   2.3484   2.6684

     occupation numbers 
     0.1250   0.1250   0.1250   0.1250   0.1250   0.1250   0.1250   0.1250
     0.1250   0.1250   0.1250   0.1250   0.1250   0.1250   0.1250   0.1250
     0.1250   0.1250   0.1250   0.1250   0.1250   0.1250   0.1250   0.1250

          k = 0.0000-0.0722 0.0568 (  1161 PWs)   bands (ev):

   -18.0600 -16.9999 -16.5639 -16.2000 -16.1824 -16.1654  -5.9916  -5.1088
    -2.9931  -2.8098  -2.6727  -2.4536  -0.3789  -0.1331   0.0168   0.3409
     0.8732   1.1212   1.1404   1.5135   1.8401   2.0303   2.4300   2.6531

     occupation numbers 
     0.0625   0.0625   0.0625   0.0625   0.0625   0.0625   0.0625   0.0625
     0.0625   0.0625   0.0625   0.0625   0.0625   0.0625   0.0625   0.0625
     0.0625   0.0625   0.0625   0.0625   0.0625   0.0625   0.0625   0.0625

          k = 0.0000-0.0722 0.1705 (  1164 PWs)   bands (ev):

   -17.8490 -17.4667 -16.2905 -16.2011 -16.1929 -16.1620  -6.4692  -4.1823
    -3.4360  -2.9115  -2.8025  -2.2182  -0.3275  -0.0436   0.1301   0.4202
     0.6124   0.9605   1.0002   1.2329   1.5775   2.3307   2.5895   2.6970

     occupation numbers 
     0.0625   0.0625   0.0625   0.0625   0.0625   0.0625   0.0625   0.0625
     0.0625   0.0625   0.0625   0.0625   0.0625   0.0625   0.0625   0.0625
     0.0625   0.0625   0.0625   0.0625   0.0625   0.0625   0.0625   0.0625

          k = 0.3750 0.0000 0.0568 (  1151 PWs)   bands (ev):

   -17.5621 -17.3318 -16.7470 -16.2366 -16.2167 -16.1879  -5.7492  -4.4000
    -3.8638  -2.7279  -2.5734  -2.0234  -0.3961  -0.2037  -0.1041   0.5451
     0.6569   0.8127   1.2108   1.4070   1.6484   2.3269   2.4790   2.7595

     occupation numbers 
     0.1250   0.1250   0.1250   0.1250   0.1250   0.1250   0.1250   0.1250
     0.1250   0.1250   0.1250   0.1250   0.1250   0.1250   0.1250   0.1250
     0.1250   0.1250   0.1250   0.1250   0.1250   0.1250   0.1250   0.1250

          k = 0.3750 0.0000 0.1705 (  1142 PWs)   bands (ev):

   -17.5929 -17.1572 -16.8703 -16.2582 -16.2184 -16.1919  -5.4027  -4.7311
    -3.9237  -2.6040  -2.3733  -2.3110  -0.5282  -0.2341  -0.0290   0.7131
     0.8209   0.9558   1.5754   1.6239   1.8767   2.1340   2.2035   2.4664

     occupation numbers 
     0.1250   0.1250   0.1250   0.1250   0.1250   0.1250   0.1250   0.1250
     0.1250   0.1250   0.1250   0.1250   0.1250   0.1250   0.1250   0.1250
     0.1250   0.1250   0.1250   0.1250   0.1250   0.1250   0.1250   0.1250

          k = 0.0000-0.2165 0.0568 (  1152 PWs)   bands (ev):

   -17.7749 -17.1531 -16.6897 -16.2402 -16.2113 -16.1809  -5.7573  -4.8344
    -3.2990  -2.8177  -2.6612  -2.1750  -0.4740  -0.1415   0.1121   0.4070
     0.6852   0.9569   1.0707   1.7009   1.7660   1.9339   2.5722   2.7320

     occupation numbers 
     0.0625   0.0625   0.0625   0.0625   0.0625   0.0625   0.0625   0.0625
     0.0625   0.0625   0.0625   0.0625   0.0625   0.0625   0.0625   0.0625
     0.0625   0.0625   0.0625   0.0625   0.0625   0.0625   0.0625   0.0625

          k = 0.0000-0.2165 0.1705 (  1148 PWs)   bands (ev):

   -17.6633 -17.3093 -16.6534 -16.2478 -16.2053 -16.1753  -5.8161  -4.5241
    -3.6690  -2.7541  -2.4132  -2.3408  -0.5290  -0.3499   0.2324   0.4861
     0.7173   1.1465   1.3344   1.5978   1.8378   2.0699   2.3598   2.5590

     occupation numbers 
     0.0625   0.0625   0.0625   0.0625   0.0625   0.0625   0.0625   0.0625
     0.0625   0.0625   0.0625   0.0625   0.0625   0.0625   0.0625   0.0625
     0.0625   0.0625   0.0625   0.0625   0.0625   0.0625   0.0625   0.0625

          k =-0.2500 0.0722-0.0568 (  1147 PWs)   bands (ev):

   -17.6746 -17.2273 -16.7278 -16.2369 -16.2085 -16.1855  -5.7427  -4.6595
    -3.5067  -2.7664  -2.6070  -2.0496  -0.3754  -0.2373   0.0186   0.4055
     0.7128   0.9180   1.2180   1.5154   1.7289   2.1611   2.5111   2.8057

     occupation numbers 
     0.1250   0.1250   0.1250   0.1250   0.1250   0.1250   0.1250   0.1250
     0.1250   0.1250   0.1250   0.1250   0.1250   0.1250   0.1250   0.1250
     0.1250   0.1250   0.1250   0.1250   0.1250   0.1250   0.1250   0.1250

          k =-0.2500 0.0722-0.1705 (  1155 PWs)   bands (ev):

   -17.6284 -17.2250 -16.7829 -16.2539 -16.2117 -16.1877  -5.6403  -4.6774
    -3.8148  -2.7262  -2.4103  -2.3082  -0.5388  -0.3880   0.1133   0.5311
     0.7133   1.0868   1.4527   1.5936   1.7661   2.0126   2.2165   2.5863

     occupation numbers 
     0.1250   0.1250   0.1250   0.1250   0.1250   0.1250   0.1250   0.1250
     0.1250   0.1250   0.1250   0.1250   0.1250   0.1250   0.1250   0.1250
     0.1250   0.1250   0.1250   0.1250   0.1250   0.1250   0.1250   0.1250

          k = 0.1250-0.1443-0.0568 (  1151 PWs)   bands (ev):

   -17.8345 -17.1023 -16.6826 -16.2329 -16.2072 -16.1761  -5.7771  -4.8659
    -3.2870  -2.7725  -2.6183  -2.2302  -0.4289  -0.0868   0.0857   0.3849
     0.6416   0.9600   1.1186   1.6116   1.8079   1.9743   2.5556   2.7446

     occupation numbers 
     0.1250   0.1250   0.1250   0.1250   0.1250   0.1250   0.1250   0.1250
     0.1250   0.1250   0.1250   0.1250   0.1250   0.1250   0.1250   0.1250
     0.1250   0.1250   0.1250   0.1250   0.1250   0.1250   0.1250   0.1250

          k = 0.1250-0.1443-0.1705 (  1151 PWs)   bands (ev):

   -17.6919 -17.3459 -16.5831 -16.2382 -16.2050 -16.1786  -5.9384  -4.4375
    -3.6671  -2.7481  -2.5119  -2.3044  -0.5324  -0.2856   0.2030   0.4059
     0.7720   1.1293   1.2811   1.5883   1.8140   2.0435   2.4224   2.5725

     occupation numbers 
     0.1250   0.1250   0.1250   0.1250   0.1250   0.1250   0.1250   0.1250
     0.1250   0.1250   0.1250   0.1250   0.1250   0.1250   0.1250   0.1250
     0.1250   0.1250   0.1250   0.1250   0.1250   0.1250   0.1250   0.1250

          k = 0.0000-0.0722-0.0568 (  1161 PWs)   bands (ev):

   -18.0610 -16.9971 -16.5649 -16.2034 -16.1773 -16.1662  -5.9792  -5.1016
    -2.9920  -2.8407  -2.6737  -2.4304  -0.3383  -0.1544   0.0297   0.3599
     0.8355   1.1205   1.1432   1.4983   1.8346   2.0026   2.4268   2.6369

     occupation numbers 
     0.0625   0.0625   0.0625   0.0625   0.0625   0.0625   0.0625   0.0625
     0.0625   0.0625   0.0625   0.0625   0.0625   0.0625   0.0625   0.0625
     0.0625   0.0625   0.0625   0.0625   0.0625   0.0625   0.0625   0.0625

          k = 0.0000-0.0722-0.1705 (  1164 PWs)   bands (ev):

   -17.8491 -17.4657 -16.2948 -16.2037 -16.1858 -16.1639  -6.4725  -4.1696
    -3.4183  -2.9308  -2.8179  -2.2005  -0.2954   0.0009   0.0877   0.3900
     0.5937   0.9578   1.0342   1.1986   1.5871   2.3227   2.5634   2.7325

     occupation numbers 
     0.0625   0.0625   0.0625   0.0625   0.0625   0.0625   0.0625   0.0625
     0.0625   0.0625   0.0625   0.0625   0.0625   0.0625   0.0625   0.0625
     0.0625   0.0625   0.0625   0.0625   0.0625   0.0625   0.0625   0.0625

          k = 0.0000-0.2165-0.0568 (  1152 PWs)   bands (ev):

   -17.7788 -17.1375 -16.7137 -16.2336 -16.1993 -16.1854  -5.7610  -4.8276
    -3.3036  -2.8418  -2.6263  -2.1436  -0.4215  -0.1152   0.0596   0.2483
     0.7086   0.9667   1.2033   1.6131   1.7048   2.0670   2.4577   2.8015

     occupation numbers 
     0.0625   0.0625   0.0625   0.0625   0.0625   0.0625   0.0625   0.0625
     0.0625   0.0625   0.0625   0.0625   0.0625   0.0625   0.0625   0.0625
     0.0625   0.0625   0.0625   0.0625   0.0625   0.0625   0.0625   0.0625

          k = 0.0000-0.2165-0.1705 (  1148 PWs)   bands (ev):

   -17.6709 -17.2900 -16.6715 -16.2415 -16.2010 -16.1794  -5.8308  -4.5221
    -3.6762  -2.7825  -2.4401  -2.2789  -0.4731  -0.4032   0.2429   0.4152
     0.7053   1.2185   1.3892   1.6274   1.8164   1.9582   2.3039   2.7132

     occupation numbers 
     0.0625   0.0625   0.0625   0.0625   0.0625   0.0625   0.0625   0.0625
     0.0625   0.0625   0.0625   0.0625   0.0625   0.0625   0.0625   0.0625
     0.0625   0.0625   0.0625   0.0625   0.0625   0.0625   0.0625   0.0625

!    total energy              =    -213.14608257 Ry
     Harris-Foulkes estimate   =    -213.14608257 Ry
     estimated scf accuracy    <          1.7E-11 Ry

     The total energy is the sum of the following terms:

     one-electron contribution =     -97.33578854 Ry
     hartree contribution      =      73.16983627 Ry
     xc contribution           =     -50.01816584 Ry
     ewald contribution        =    -138.96196445 Ry

     convergence has been achieved in   9 iterations

     Forces acting on atoms (Ry/au):

     atom    1 type  1   force =     0.00367483   -0.00616643    0.00002116
     atom    2 type  1   force =     0.00367483    0.00616643   -0.00002116
     atom    3 type  1   force =    -0.00684360    0.00000000    0.00000000
     atom    4 type  2   force =    -0.01962125    0.03392432    0.01867419
     atom    5 type  2   force =    -0.01969806   -0.03306129    0.01882280
     atom    6 type  2   force =     0.03906628   -0.00083558    0.01904023
     atom    7 type  2   force =    -0.01962125   -0.03392432   -0.01867419
     atom    8 type  2   force =    -0.01969806    0.03306129   -0.01882280
     atom    9 type  2   force =     0.03906628    0.00083558   -0.01904023
     The non-local contrib.  to forces
     atom    1 type  1   force =    -0.00327674    0.00668076    0.00049490
     atom    2 type  1   force =    -0.00327674   -0.00668076   -0.00049490
     atom    3 type  1   force =     0.00769378    0.00000000    0.00000000
     atom    4 type  2   force =     0.36539909   -0.70893091   -0.46124807
     atom    5 type  2   force =     0.43139934    0.67106404   -0.46101459
     atom    6 type  2   force =    -0.79676357    0.03812987   -0.46012329
     atom    7 type  2   force =     0.36539909    0.70893091    0.46124807
     atom    8 type  2   force =     0.43139934   -0.67106404    0.46101459
     atom    9 type  2   force =    -0.79676357   -0.03812987    0.46012329
     The ionic contribution  to forces
     atom    1 type  1   force =    -0.02624446    0.04549851   -0.00003980
     atom    2 type  1   force =    -0.02624446   -0.04549851    0.00003980
     atom    3 type  1   force =     0.05254218    0.00000000    0.00000000
     atom    4 type  2   force =    -2.01280941    2.87798355    1.63888123
     atom    5 type  2   force =    -1.48603190   -3.18215155    1.63886102
     atom    6 type  2   force =     3.49881469    0.30413529    1.63885390
     atom    7 type  2   force =    -2.01280941   -2.87798355   -1.63888123
     atom    8 type  2   force =    -1.48603190    3.18215155   -1.63886102
     atom    9 type  2   force =     3.49881469   -0.30413529   -1.63885390
     The local contribution  to forces
     atom    1 type  1   force =     0.03319616   -0.05834503   -0.00043344
     atom    2 type  1   force =     0.03319616    0.05834503    0.00043344
     atom    3 type  1   force =    -0.06708130    0.00000000    0.00000000
     atom    4 type  2   force =     1.62779627   -2.13514367   -1.15896954
     atom    5 type  2   force =     1.03494442    2.47804084   -1.15903503
     atom    6 type  2   force =    -2.66300303   -0.34309987   -1.15970257
     atom    7 type  2   force =     1.62779627    2.13514367    1.15896954
     atom    8 type  2   force =     1.03494442   -2.47804084    1.15903503
     atom    9 type  2   force =    -2.66300303    0.34309987    1.15970257
     The core correction contribution to forces
     atom    1 type  1   force =     0.00000000    0.00000000    0.00000000
     atom    2 type  1   force =     0.00000000    0.00000000    0.00000000
     atom    3 type  1   force =     0.00000000    0.00000000    0.00000000
     atom    4 type  2   force =    -0.00000587    0.00001393    0.00000979
     atom    5 type  2   force =    -0.00000914   -0.00001197    0.00000978
     atom    6 type  2   force =     0.00001500   -0.00000198    0.00000971
     atom    7 type  2   force =    -0.00000587   -0.00001393   -0.00000979
     atom    8 type  2   force =    -0.00000914    0.00001197   -0.00000978
     atom    9 type  2   force =     0.00001500    0.00000198   -0.00000971
     The Hubbard contrib.    to forces
     atom    1 type  1   force =     0.00000000    0.00000000    0.00000000
     atom    2 type  1   force =     0.00000000    0.00000000    0.00000000
     atom    3 type  1   force =     0.00000000    0.00000000    0.00000000
     atom    4 type  2   force =     0.00000000    0.00000000    0.00000000
     atom    5 type  2   force =     0.00000000    0.00000000    0.00000000
     atom    6 type  2   force =     0.00000000    0.00000000    0.00000000
     atom    7 type  2   force =     0.00000000    0.00000000    0.00000000
     atom    8 type  2   force =     0.00000000    0.00000000    0.00000000
     atom    9 type  2   force =     0.00000000    0.00000000    0.00000000
     The SCF correction term to forces
     atom    1 type  1   force =    -0.00000022   -0.00000066   -0.00000050
     atom    2 type  1   force =    -0.00000022    0.00000066    0.00000050
     atom    3 type  1   force =     0.00000165    0.00000000    0.00000000
     atom    4 type  2   force =    -0.00000141    0.00000142    0.00000078
     atom    5 type  2   force =    -0.00000087   -0.00000264    0.00000162
     atom    6 type  2   force =     0.00000310    0.00000111    0.00000249
     atom    7 type  2   force =    -0.00000141   -0.00000142   -0.00000078
     atom    8 type  2   force =    -0.00000087    0.00000264   -0.00000162
     atom    9 type  2   force =     0.00000310   -0.00000111   -0.00000249

     Total force =     0.106624     Total SCF correction =     0.000008


     entering subroutine stress ...

          total   stress  (Ry/bohr**3)                   (kbar)     P=-1689.39
  -0.01149222   0.00000000   0.00000000      -1690.56      0.00      0.00
   0.00000000  -0.01151303  -0.00000113          0.00  -1693.62     -0.17
   0.00000000  -0.00000113  -0.01144753          0.00     -0.17  -1683.99

     kinetic stress (kbar)  15125.73      0.00      0.00
                                0.00  15123.84     -0.06
                                0.00     -0.06  15103.57

     local   stress (kbar) -11216.68      0.00      0.00
                                0.00 -11217.74     -0.12
                                0.00     -0.12 -12461.92

     nonloc. stress (kbar)   2090.83      0.00      0.00
                                0.00   2090.27     -0.02
                                0.00     -0.02   2102.75

     hartree stress (kbar)   4560.32      0.00      0.00
                                0.00   4560.77      0.06
                                0.00      0.06   5002.96

     exc-cor stress (kbar)  -3031.23      0.00      0.00
                                0.00  -3031.21      0.00
                                0.00      0.00  -3029.86

     corecor stress (kbar)     -5.54      0.00      0.00
                                0.00     -5.54      0.00
                                0.00      0.00     -5.54

     ewald   stress (kbar)  -9213.99      0.00      0.00
                                0.00  -9214.01     -0.02
                                0.00     -0.02  -8395.95

     hubbard stress (kbar)      0.00      0.00      0.00
                                0.00      0.00      0.00
                                0.00      0.00      0.00

     london  stress (kbar)      0.00      0.00      0.00
                                0.00      0.00      0.00
                                0.00      0.00      0.00

     dft-nl  stress (kbar)      0.00      0.00      0.00
                                0.00      0.00      0.00
                                0.00      0.00      0.00



     Writing output data file quartz.save
 
     init_run     :      1.60s CPU      1.62s WALL (       1 calls)
     electrons    :     11.03s CPU     11.20s WALL (       1 calls)
     forces       :      0.65s CPU      0.65s WALL (       1 calls)
     stress       :      1.35s CPU      1.35s WALL (       1 calls)

     Called by init_run:
     wfcinit      :      0.79s CPU      0.79s WALL (       1 calls)
     potinit      :      0.29s CPU      0.29s WALL (       1 calls)

     Called by electrons:
     c_bands      :      6.91s CPU      7.00s WALL (       9 calls)
     sum_band     :      2.19s CPU      2.21s WALL (       9 calls)
     v_of_rho     :      0.84s CPU      0.86s WALL (      10 calls)
     v_h          :      0.05s CPU      0.06s WALL (      10 calls)
     v_xc         :      0.94s CPU      0.96s WALL (      12 calls)
     newd         :      1.04s CPU      1.04s WALL (      10 calls)
     mix_rho      :      0.09s CPU      0.09s WALL (       9 calls)

     Called by c_bands:
     init_us_2    :      0.15s CPU      0.16s WALL (     105 calls)
     cegterg      :      6.61s CPU      6.68s WALL (      45 calls)

     Called by sum_band:
     sum_band:bec :      0.00s CPU      0.00s WALL (      45 calls)
     addusdens    :      0.92s CPU      0.92s WALL (       9 calls)

     Called by *egterg:
     h_psi        :      5.94s CPU      6.02s WALL (     143 calls)
     s_psi        :      0.24s CPU      0.24s WALL (     143 calls)
     g_psi        :      0.06s CPU      0.06s WALL (      93 calls)
     cdiaghg      :      0.26s CPU      0.26s WALL (     138 calls)
     cegterg:over :      0.31s CPU      0.30s WALL (      93 calls)
     cegterg:upda :      0.19s CPU      0.19s WALL (      93 calls)
     cegterg:last :      0.12s CPU      0.13s WALL (      50 calls)

     Called by h_psi:
     h_psi:vloc   :      5.44s CPU      5.50s WALL (     143 calls)
     h_psi:vnl    :      0.49s CPU      0.51s WALL (     143 calls)
     add_vuspsi   :      0.23s CPU      0.24s WALL (     143 calls)

     General routines
     calbec       :      0.36s CPU      0.36s WALL (     198 calls)
     fft          :      0.68s CPU      0.69s WALL (     181 calls)
     ffts         :      0.01s CPU      0.02s WALL (      19 calls)
     fftw         :      5.62s CPU      5.66s WALL (    8090 calls)
     interpolate  :      0.10s CPU      0.10s WALL (      19 calls)
     davcio       :      0.00s CPU      0.03s WALL (     150 calls)
 
     Parallel routines
     fft_scatter  :      0.27s CPU      0.28s WALL (    8290 calls)
     EXX routines
 
     PWSCF        :    14.78s CPU        15.02s WALL

 
   This run was terminated on:  10: 3:50  21Jun2012            

=------------------------------------------------------------------------------=
   JOB DONE.
=------------------------------------------------------------------------------=
