
     Program PWSCF v.7.1 starts on 24Jun2022 at 11: 0:16 

     This program is part of the open-source Quantum ESPRESSO suite
     for quantum simulation of materials; please cite
         "P. Giannozzi et al., J. Phys.:Condens. Matter 21 395502 (2009);
         "P. Giannozzi et al., J. Phys.:Condens. Matter 29 465901 (2017);
         "P. Giannozzi et al., J. Chem. Phys. 152 154105 (2020);
          URL http://www.quantum-espresso.org", 
     in publications or presentations arising from this work. More details at
     http://www.quantum-espresso.org/quote

     Parallel version (MPI), running on     4 processors

     MPI processes distributed on     1 nodes
     6707 MiB available memory on the printing compute node when the environment starts
 
     Waiting for input...
     Reading input from standard input

     Current dimensions of program PWSCF are:
     Max number of different atomic species (ntypx) = 10
     Max number of k-points (npk) =  40000
     Max angular momentum in pseudopotentials (lmaxx) =  4
     WARNING: atomic wfc #  1 for atom typeK has zero norm
     WARNING: atomic wfc #  3 for atom typeK has zero norm
     WARNING: atomic wfc #  5 for atom typeK has zero norm
 
     R & G space division:  proc/nbgrp/npool/nimage =       4
     Subspace diagonalization in iterative solution of the eigenvalue problem:
     a serial algorithm will be used

 
     Parallelization info
     --------------------
     sticks:   dense  smooth     PW     G-vecs:    dense   smooth      PW
     Min         806     806    201                30272    30272    3778
     Max         807     807    202                30274    30274    3781
     Sum        3225    3225    805               121093   121093   15117
 
     Using Slab Decomposition
 


     bravais-lattice index     =           11
     lattice parameter (alat)  =      17.1190  a.u.
     unit-cell volume          =    3539.6770 (a.u.)^3
     number of atoms/cell      =           17
     number of atomic types    =            3
     number of electrons       =        69.00
     number of Kohn-Sham states=           42
     kinetic-energy cutoff     =      40.0000  Ry
     charge density cutoff     =     160.0000  Ry
     scf convergence threshold =      2.0E-06
     mixing beta               =       0.2000
     number of iterations used =            8  plain     mixing
     Exchange-correlation=  SLA  PW   PBX  PBC
                           (   1   4   3   4   0   0   0)

     celldm(1)=  17.119029  celldm(2)=   1.405188  celldm(3)=   1.004204
     celldm(4)=   0.000000  celldm(5)=   0.000000  celldm(6)=   0.000000

     crystal axes: (cart. coord. in units of alat)
               a(1) = (   0.500000   0.702594   0.502102 )  
               a(2) = (  -0.500000   0.702594   0.502102 )  
               a(3) = (  -0.500000  -0.702594   0.502102 )  

     reciprocal axes: (cart. coord. in units 2 pi/alat)
               b(1) = (  1.000000  0.000000  0.995814 )  
               b(2) = ( -1.000000  0.711648  0.000000 )  
               b(3) = (  0.000000 -0.711648  0.995814 )  


     PseudoPot. # 1 for K  read from file:
     ./pseudo/K.pbe-tm-gipaw-dc.UPF
     MD5 check sum: c108e8aa63257e1c2f6d9350885f3507
     Pseudo is Norm-conserving + core correction, Zval =  1.0
     Generated using "atomic" code by A. Dal Corso  v.6.2 svn rev. 13949:13950
     Using radial grid of 1555 points,  2 beta functions with: 
                l(1) =   2
                l(2) =   1

     PseudoPot. # 2 for Cl read from file:
     ./pseudo/Cl.pbe-tm-gipaw.UPF
     MD5 check sum: 6263502ce953d769893a136fffc16e2a
     Pseudo is Norm-conserving, Zval =  7.0
     Generated by new atomic code, or converted to UPF format
     Using radial grid of 1157 points,  2 beta functions with: 
                l(1) =   0
                l(2) =   1

     PseudoPot. # 3 for O  read from file:
     ./pseudo/O.pbe-tm-new-gipaw-dc.UPF
     MD5 check sum: cd70c9dcf1f7d755502eb127a1501eea
     Pseudo is Norm-conserving, Zval =  6.0
     Generated by new atomic code, or converted to UPF format
     Using radial grid of 1469 points,  1 beta functions with: 
                l(1) =   0

     atomic species   valence    mass     pseudopotential
        K              1.00    39.10000     K ( 1.00)
        Cl             7.00    35.45000     Cl( 1.00)
        O              6.00    16.00000     O ( 1.00)

     Starting magnetic structure 
     atomic species   magnetization
        K            0.000
        Cl           0.000
        O            0.400

      8 Sym. Ops., with inversion, found


                                    s                        frac. trans.

      isym =  1     identity                                     

 cryst.   s( 1) = (     1          0          0      )
                  (     0          1          0      )
                  (     0          0          1      )

 cart.    s( 1) = (  1.0000000  0.0000000  0.0000000 )
                  (  0.0000000  1.0000000  0.0000000 )
                  (  0.0000000  0.0000000  1.0000000 )


      isym =  2     180 deg rotation - cart. axis [0,0,1]        

 cryst.   s( 2) = (     0          0          1      )
                  (     1         -1          1      )
                  (     1          0          0      )

 cart.    s( 2) = ( -1.0000000  0.0000000  0.0000000 )
                  (  0.0000000 -1.0000000  0.0000000 )
                  (  0.0000000  0.0000000  1.0000000 )


      isym =  3     180 deg rotation - cart. axis [0,1,0]        

 cryst.   s( 3) = (    -1          1         -1      )
                  (     0          0         -1      )
                  (     0         -1          0      )

 cart.    s( 3) = ( -1.0000000  0.0000000  0.0000000 )
                  (  0.0000000  1.0000000  0.0000000 )
                  (  0.0000000  0.0000000 -1.0000000 )


      isym =  4     180 deg rotation - cart. axis [1,0,0]        

 cryst.   s( 4) = (     0         -1          0      )
                  (    -1          0          0      )
                  (    -1          1         -1      )

 cart.    s( 4) = (  1.0000000  0.0000000  0.0000000 )
                  (  0.0000000 -1.0000000  0.0000000 )
                  (  0.0000000  0.0000000 -1.0000000 )


      isym =  5     inversion                                    

 cryst.   s( 5) = (    -1          0          0      )
                  (     0         -1          0      )
                  (     0          0         -1      )

 cart.    s( 5) = ( -1.0000000  0.0000000  0.0000000 )
                  (  0.0000000 -1.0000000  0.0000000 )
                  (  0.0000000  0.0000000 -1.0000000 )


      isym =  6     inv. 180 deg rotation - cart. axis [0,0,1]   

 cryst.   s( 6) = (     0          0         -1      )
                  (    -1          1         -1      )
                  (    -1          0          0      )

 cart.    s( 6) = (  1.0000000  0.0000000  0.0000000 )
                  (  0.0000000  1.0000000  0.0000000 )
                  (  0.0000000  0.0000000 -1.0000000 )


      isym =  7     inv. 180 deg rotation - cart. axis [0,1,0]   

 cryst.   s( 7) = (     1         -1          1      )
                  (     0          0          1      )
                  (     0          1          0      )

 cart.    s( 7) = (  1.0000000  0.0000000  0.0000000 )
                  (  0.0000000 -1.0000000  0.0000000 )
                  (  0.0000000  0.0000000  1.0000000 )


      isym =  8     inv. 180 deg rotation - cart. axis [1,0,0]   

 cryst.   s( 8) = (     0          1          0      )
                  (     1          0          0      )
                  (     1         -1          1      )

 cart.    s( 8) = ( -1.0000000  0.0000000  0.0000000 )
                  (  0.0000000  1.0000000  0.0000000 )
                  (  0.0000000  0.0000000  1.0000000 )


     point group D_2h (mmm) 
     there are  8 classes
     the character table:

       E     C2    C2'   C2''  i     s_v   s_v'  s_v''
A_g    1.00  1.00  1.00  1.00  1.00  1.00  1.00  1.00
B_1g   1.00  1.00 -1.00 -1.00  1.00  1.00 -1.00 -1.00
B_2g   1.00 -1.00  1.00 -1.00  1.00 -1.00  1.00 -1.00
B_3g   1.00 -1.00 -1.00  1.00  1.00 -1.00 -1.00  1.00
A_u    1.00  1.00  1.00  1.00 -1.00 -1.00 -1.00 -1.00
B_1u   1.00  1.00 -1.00 -1.00 -1.00 -1.00  1.00  1.00
B_2u   1.00 -1.00  1.00 -1.00 -1.00  1.00 -1.00  1.00
B_3u   1.00 -1.00 -1.00  1.00 -1.00  1.00  1.00 -1.00

     the symmetry operations in each class and the name of the first element:

     E        1
          identity                                               
     C2       2
          180 deg rotation - cart. axis [0,0,1]                  
     C2'      4
          180 deg rotation - cart. axis [1,0,0]                  
     C2''     3
          180 deg rotation - cart. axis [0,1,0]                  
     i        5
          inversion                                              
     s_v      6
          inv. 180 deg rotation - cart. axis [0,0,1]             
     s_v'     8
          inv. 180 deg rotation - cart. axis [1,0,0]             
     s_v''    7
          inv. 180 deg rotation - cart. axis [0,1,0]             

   Cartesian axes

     site n.     atom                  positions (alat units)
         1           Cl  tau(   1) = (   0.2500000   0.3512971   0.2510509  )
         2           Cl  tau(   2) = (  -0.2500000  -0.3512971   0.2510509  )
         3           Cl  tau(   3) = (  -0.2500000   0.3512971   0.7531527  )
         4           Cl  tau(   4) = (  -0.2500000   0.3512971   0.2510509  )
         5           Cl  tau(   5) = (   0.0000000   0.0000000   0.5021018  )
         6           Cl  tau(   6) = (   0.0000000   0.7025941   0.5021018  )
         7           Cl  tau(   7) = (  -0.5000000   0.0000000   0.5021018  )
         8           K   tau(   8) = (   0.0000000   0.3501729   0.5021018  )
         9           K   tau(   9) = (  -0.5000000   0.3524212   1.0042036  )
        10           K   tau(  10) = (  -0.5000000   0.3607118   0.5021018  )
        11           K   tau(  11) = (  -0.5000000  -0.3607118   0.5021018  )
        12           K   tau(  12) = (  -0.2516000  -0.0000000   0.2532601  )
        13           K   tau(  13) = (  -0.2484000   0.7025941   0.7553619  )
        14           K   tau(  14) = (  -0.2484000   0.7025941   1.2530452  )
        15           K   tau(  15) = (  -0.2516000   0.0000000   0.7509434  )
        16           O   tau(  16) = (   0.0000000   0.0000000   0.0751144  )
        17           O   tau(  17) = (   0.0000000   0.0000000   0.9290891  )

   Crystallographic axes

     site n.     atom                  positions (cryst. coord.)
         1           Cl  tau(   1) = (  0.5000000 -0.0000000  0.0000000  )
         2           Cl  tau(   2) = (  0.0000000  0.0000000  0.5000000  )
         3           Cl  tau(   3) = (  0.5000000  0.5000000  0.5000000  )
         4           Cl  tau(   4) = (  0.0000000  0.5000000  0.0000000  )
         5           Cl  tau(   5) = (  0.5000000  0.0000000  0.5000000  )
         6           Cl  tau(   6) = (  0.5000000  0.5000000  0.0000000  )
         7           Cl  tau(   7) = (  0.0000000  0.5000000  0.5000000  )
         8           K   tau(   8) = (  0.5000000  0.2492000  0.2508000  )
         9           K   tau(   9) = (  0.5000000  0.7508000  0.7492000  )
        10           K   tau(  10) = (  0.0000000  0.7567000  0.2433000  )
        11           K   tau(  11) = (  0.0000000  0.2433000  0.7567000  )
        12           K   tau(  12) = (  0.0006000  0.2516000  0.2522000  )
        13           K   tau(  13) = (  0.5038000  0.7484000  0.2522000  )
        14           K   tau(  14) = (  0.9994000  0.7484000  0.7478000  )
        15           K   tau(  15) = (  0.4962000  0.2516000  0.7478000  )
        16           O   tau(  16) = (  0.0748000  0.0000000  0.0748000  )
        17           O   tau(  17) = (  0.9252000  0.0000000  0.9252000  )

     number of k points=     1  Gaussian smearing, width (Ry)=  0.0100
                       cart. coord. in units 2pi/alat
        k(    1) = (   0.0000000   0.0000000   0.0000000), wk =   1.0000000

                       cryst. coord.
        k(    1) = (   0.0000000   0.0000000   0.0000000), wk =   1.0000000

     Dense  grid:   121093 G-vectors     FFT dimensions: (  72,  72,  72)

     Dynamical RAM for                 wfc:       2.42 MB

     Dynamical RAM for     wfc (w. buffer):       7.27 MB

     Dynamical RAM for           str. fact:       1.39 MB

     Dynamical RAM for           local pot:       0.00 MB

     Dynamical RAM for          nlocal pot:       5.42 MB

     Dynamical RAM for                qrad:       0.44 MB

     Dynamical RAM for          rho,v,vnew:       7.04 MB

     Dynamical RAM for               rhoin:       2.35 MB

     Dynamical RAM for            rho*nmix:      14.78 MB

     Dynamical RAM for           G-vectors:       1.96 MB

     Dynamical RAM for          h,s,v(r/c):       0.32 MB

     Dynamical RAM for          <psi|beta>:       0.06 MB

     Dynamical RAM for                 psi:       4.84 MB

     Dynamical RAM for                hpsi:       4.84 MB

     Dynamical RAM for      wfcinit/wfcrot:      13.09 MB

     Estimated static dynamical RAM per process >      31.98 MB

     Estimated max dynamical RAM per process >      59.85 MB

     Estimated total dynamical RAM >     239.41 MB
     Generating pointlists ...
     new r_m :   0.1272 (alat units)  2.1770 (a.u.) for type    1
     new r_m :   0.1444 (alat units)  2.4728 (a.u.) for type    2
     new r_m :   0.0620 (alat units)  1.0609 (a.u.) for type    3

     Initial potential from superposition of free atoms

     starting charge      65.0824, renormalised to      69.0000
     Starting wfcs are  111 randomized atomic wfcs

     total cpu time spent up to now is        1.0 secs

     Self-consistent Calculation

     iteration #  1     ecut=    40.00 Ry     beta= 0.20
     Davidson diagonalization with overlap

---- Real-time Memory Report at c_bands before calling an iterative solver
           103 MiB given to the printing process from OS
             0 MiB allocation reported by mallinfo(arena+hblkhd)
          6504 MiB available memory on the node where the printing process lives
------------------
     ethr =  1.00E-02,  avg # of iterations =  3.0

     total cpu time spent up to now is        1.4 secs

     total energy              =    -306.10446494 Ry
     estimated scf accuracy    <       7.84960235 Ry

     total magnetization       =     0.27 Bohr mag/cell
     absolute magnetization    =     1.00 Bohr mag/cell

     iteration #  2     ecut=    40.00 Ry     beta= 0.20
     Davidson diagonalization with overlap

---- Real-time Memory Report at c_bands before calling an iterative solver
           115 MiB given to the printing process from OS
             0 MiB allocation reported by mallinfo(arena+hblkhd)
          6411 MiB available memory on the node where the printing process lives
------------------
     ethr =  1.00E-02,  avg # of iterations =  4.5

     total cpu time spent up to now is        1.9 secs

     total energy              =    -307.52914149 Ry
     estimated scf accuracy    <       0.49444980 Ry

     total magnetization       =     1.00 Bohr mag/cell
     absolute magnetization    =     1.24 Bohr mag/cell

     iteration #  3     ecut=    40.00 Ry     beta= 0.20
     Davidson diagonalization with overlap

---- Real-time Memory Report at c_bands before calling an iterative solver
           120 MiB given to the printing process from OS
             0 MiB allocation reported by mallinfo(arena+hblkhd)
          6403 MiB available memory on the node where the printing process lives
------------------
     ethr =  7.17E-04,  avg # of iterations =  3.0

     total cpu time spent up to now is        2.3 secs

     total energy              =    -307.63932356 Ry
     estimated scf accuracy    <       0.26576019 Ry

     total magnetization       =     1.00 Bohr mag/cell
     absolute magnetization    =     1.21 Bohr mag/cell

     iteration #  4     ecut=    40.00 Ry     beta= 0.20
     Davidson diagonalization with overlap

---- Real-time Memory Report at c_bands before calling an iterative solver
           122 MiB given to the printing process from OS
             0 MiB allocation reported by mallinfo(arena+hblkhd)
          6393 MiB available memory on the node where the printing process lives
------------------
     ethr =  3.85E-04,  avg # of iterations =  2.0

     total cpu time spent up to now is        2.7 secs

     total energy              =    -307.70001083 Ry
     estimated scf accuracy    <       0.05664437 Ry

     total magnetization       =     1.00 Bohr mag/cell
     absolute magnetization    =     1.13 Bohr mag/cell

     iteration #  5     ecut=    40.00 Ry     beta= 0.20
     Davidson diagonalization with overlap

---- Real-time Memory Report at c_bands before calling an iterative solver
           124 MiB given to the printing process from OS
             0 MiB allocation reported by mallinfo(arena+hblkhd)
          6389 MiB available memory on the node where the printing process lives
------------------
     ethr =  8.21E-05,  avg # of iterations =  6.0

     total cpu time spent up to now is        3.3 secs

     total energy              =    -307.71171613 Ry
     estimated scf accuracy    <       0.02048124 Ry

     total magnetization       =     1.00 Bohr mag/cell
     absolute magnetization    =     1.08 Bohr mag/cell

     iteration #  6     ecut=    40.00 Ry     beta= 0.20
     Davidson diagonalization with overlap

---- Real-time Memory Report at c_bands before calling an iterative solver
           126 MiB given to the printing process from OS
             0 MiB allocation reported by mallinfo(arena+hblkhd)
          6381 MiB available memory on the node where the printing process lives
------------------
     ethr =  2.97E-05,  avg # of iterations =  4.0

     total cpu time spent up to now is        3.7 secs

     total energy              =    -307.71579251 Ry
     estimated scf accuracy    <       0.00189812 Ry

     total magnetization       =     1.00 Bohr mag/cell
     absolute magnetization    =     1.05 Bohr mag/cell

     iteration #  7     ecut=    40.00 Ry     beta= 0.20
     Davidson diagonalization with overlap

---- Real-time Memory Report at c_bands before calling an iterative solver
           128 MiB given to the printing process from OS
             0 MiB allocation reported by mallinfo(arena+hblkhd)
          6382 MiB available memory on the node where the printing process lives
------------------
     ethr =  2.75E-06,  avg # of iterations = 10.5

     total cpu time spent up to now is        4.3 secs

     total energy              =    -307.71644067 Ry
     estimated scf accuracy    <       0.00114005 Ry

     total magnetization       =     1.00 Bohr mag/cell
     absolute magnetization    =     1.04 Bohr mag/cell

     iteration #  8     ecut=    40.00 Ry     beta= 0.20
     Davidson diagonalization with overlap

---- Real-time Memory Report at c_bands before calling an iterative solver
           129 MiB given to the printing process from OS
             0 MiB allocation reported by mallinfo(arena+hblkhd)
          6373 MiB available memory on the node where the printing process lives
------------------
     ethr =  1.65E-06,  avg # of iterations =  3.5

     total cpu time spent up to now is        4.8 secs

     total energy              =    -307.71688649 Ry
     estimated scf accuracy    <       0.00115904 Ry

     total magnetization       =     1.00 Bohr mag/cell
     absolute magnetization    =     1.04 Bohr mag/cell

     iteration #  9     ecut=    40.00 Ry     beta= 0.20
     Davidson diagonalization with overlap

---- Real-time Memory Report at c_bands before calling an iterative solver
           131 MiB given to the printing process from OS
             0 MiB allocation reported by mallinfo(arena+hblkhd)
          6366 MiB available memory on the node where the printing process lives
------------------
     ethr =  1.65E-06,  avg # of iterations =  3.5

     total cpu time spent up to now is        5.2 secs

     total energy              =    -307.71708857 Ry
     estimated scf accuracy    <       0.00162786 Ry

     total magnetization       =     1.00 Bohr mag/cell
     absolute magnetization    =     1.04 Bohr mag/cell

     iteration # 10     ecut=    40.00 Ry     beta= 0.20
     Davidson diagonalization with overlap

---- Real-time Memory Report at c_bands before calling an iterative solver
           133 MiB given to the printing process from OS
             0 MiB allocation reported by mallinfo(arena+hblkhd)
          6359 MiB available memory on the node where the printing process lives
------------------
     ethr =  1.65E-06,  avg # of iterations =  2.0

     total cpu time spent up to now is        5.6 secs

     total energy              =    -307.71634631 Ry
     estimated scf accuracy    <       0.00169002 Ry

     total magnetization       =     1.00 Bohr mag/cell
     absolute magnetization    =     1.04 Bohr mag/cell

     iteration # 11     ecut=    40.00 Ry     beta= 0.20
     Davidson diagonalization with overlap

---- Real-time Memory Report at c_bands before calling an iterative solver
           133 MiB given to the printing process from OS
             0 MiB allocation reported by mallinfo(arena+hblkhd)
          6355 MiB available memory on the node where the printing process lives
------------------
     ethr =  1.65E-06,  avg # of iterations =  4.0

     total cpu time spent up to now is        6.1 secs

     total energy              =    -307.71808068 Ry
     estimated scf accuracy    <       0.00064652 Ry

     total magnetization       =     1.00 Bohr mag/cell
     absolute magnetization    =     1.05 Bohr mag/cell

     iteration # 12     ecut=    40.00 Ry     beta= 0.20
     Davidson diagonalization with overlap

---- Real-time Memory Report at c_bands before calling an iterative solver
           133 MiB given to the printing process from OS
             0 MiB allocation reported by mallinfo(arena+hblkhd)
          6352 MiB available memory on the node where the printing process lives
------------------
     ethr =  9.37E-07,  avg # of iterations =  3.5

     total cpu time spent up to now is        6.5 secs

     total energy              =    -307.71795215 Ry
     estimated scf accuracy    <       0.00010194 Ry

     total magnetization       =     1.00 Bohr mag/cell
     absolute magnetization    =     1.05 Bohr mag/cell

     iteration # 13     ecut=    40.00 Ry     beta= 0.20
     Davidson diagonalization with overlap

---- Real-time Memory Report at c_bands before calling an iterative solver
           133 MiB given to the printing process from OS
             0 MiB allocation reported by mallinfo(arena+hblkhd)
          6352 MiB available memory on the node where the printing process lives
------------------
     ethr =  1.48E-07,  avg # of iterations =  4.0

     total cpu time spent up to now is        7.0 secs

     total energy              =    -307.71784332 Ry
     estimated scf accuracy    <       0.00011509 Ry

     total magnetization       =     1.00 Bohr mag/cell
     absolute magnetization    =     1.05 Bohr mag/cell

     iteration # 14     ecut=    40.00 Ry     beta= 0.20
     Davidson diagonalization with overlap

---- Real-time Memory Report at c_bands before calling an iterative solver
           133 MiB given to the printing process from OS
             0 MiB allocation reported by mallinfo(arena+hblkhd)
          6351 MiB available memory on the node where the printing process lives
------------------
     ethr =  1.48E-07,  avg # of iterations =  4.5

     total cpu time spent up to now is        7.5 secs

     total energy              =    -307.71819837 Ry
     estimated scf accuracy    <       0.00010943 Ry

     total magnetization       =     1.00 Bohr mag/cell
     absolute magnetization    =     1.06 Bohr mag/cell

     iteration # 15     ecut=    40.00 Ry     beta= 0.20
     Davidson diagonalization with overlap

---- Real-time Memory Report at c_bands before calling an iterative solver
           133 MiB given to the printing process from OS
             0 MiB allocation reported by mallinfo(arena+hblkhd)
          6351 MiB available memory on the node where the printing process lives
------------------
     ethr =  1.48E-07,  avg # of iterations =  2.5

     total cpu time spent up to now is        7.9 secs

     total energy              =    -307.71821157 Ry
     estimated scf accuracy    <       0.00001300 Ry

     total magnetization       =     1.00 Bohr mag/cell
     absolute magnetization    =     1.06 Bohr mag/cell

     iteration # 16     ecut=    40.00 Ry     beta= 0.20
     Davidson diagonalization with overlap

---- Real-time Memory Report at c_bands before calling an iterative solver
           133 MiB given to the printing process from OS
             0 MiB allocation reported by mallinfo(arena+hblkhd)
          6351 MiB available memory on the node where the printing process lives
------------------
     ethr =  1.88E-08,  avg # of iterations =  2.0

     total cpu time spent up to now is        8.3 secs

     total energy              =    -307.71821494 Ry
     estimated scf accuracy    <       0.00001481 Ry

     total magnetization       =     1.00 Bohr mag/cell
     absolute magnetization    =     1.06 Bohr mag/cell

     iteration # 17     ecut=    40.00 Ry     beta= 0.20
     Davidson diagonalization with overlap

---- Real-time Memory Report at c_bands before calling an iterative solver
           133 MiB given to the printing process from OS
             0 MiB allocation reported by mallinfo(arena+hblkhd)
          6351 MiB available memory on the node where the printing process lives
------------------
     ethr =  1.88E-08,  avg # of iterations =  3.0
 
     Magnetic moment per site  (integrated on atomic sphere of radius R)
     atom   1 (R=0.144)  charge=  6.7620  magn= -0.0002
     atom   2 (R=0.144)  charge=  6.7620  magn= -0.0002
     atom   3 (R=0.144)  charge=  6.7620  magn= -0.0002
     atom   4 (R=0.144)  charge=  6.7620  magn= -0.0002
     atom   5 (R=0.144)  charge=  6.7609  magn= -0.0004
     atom   6 (R=0.144)  charge=  6.7621  magn= -0.0004
     atom   7 (R=0.144)  charge=  6.7607  magn= -0.0002
     atom   8 (R=0.127)  charge=  0.0632  magn= -0.0000
     atom   9 (R=0.127)  charge=  0.0632  magn= -0.0000
     atom  10 (R=0.127)  charge=  0.0573  magn= -0.0004
     atom  11 (R=0.127)  charge=  0.0573  magn= -0.0004
     atom  12 (R=0.127)  charge=  0.0650  magn=  0.0025
     atom  13 (R=0.127)  charge=  0.0650  magn=  0.0025
     atom  14 (R=0.127)  charge=  0.0650  magn=  0.0025
     atom  15 (R=0.127)  charge=  0.0650  magn=  0.0025
     atom  16 (R=0.062)  charge=  3.4733  magn=  0.3072
     atom  17 (R=0.062)  charge=  3.4733  magn=  0.3072

     total cpu time spent up to now is        8.7 secs

     End of self-consistent calculation

 ------ SPIN UP ------------


          k = 0.0000 0.0000 0.0000 ( 15117 PWs)   bands (ev):

   -23.2595 -14.8501 -13.7831 -13.7076 -13.6614 -13.6439 -13.6430 -13.6205
   -13.6050  -5.9752  -5.5518  -4.5520  -2.7367  -2.6495  -2.6229  -2.6103
    -2.3922  -2.3450  -2.3353  -2.0479  -2.0438  -2.0362  -2.0256  -1.9995
    -1.9886  -1.9702  -1.9667  -1.9577  -1.9487  -1.9451  -1.7809  -1.7597
    -1.7584  -0.7667   0.3091   3.2231   4.8325   4.8395   4.9879   5.5551
     5.6900   5.8517

     occupation numbers 
     1.0000   1.0000   1.0000   1.0000   1.0000   1.0000   1.0000   1.0000
     1.0000   1.0000   1.0000   1.0000   1.0000   1.0000   1.0000   1.0000
     1.0000   1.0000   1.0000   1.0000   1.0000   1.0000   1.0000   1.0000
     1.0000   1.0000   1.0000   1.0000   1.0000   1.0000   1.0000   1.0000
     1.0000   1.0000   1.0000   0.0000   0.0000   0.0000   0.0000   0.0000
     0.0000   0.0000

 ------ SPIN DOWN ----------


          k = 0.0000 0.0000 0.0000 ( 15117 PWs)   bands (ev):

   -22.5952 -13.9574 -13.7835 -13.7079 -13.6617 -13.6441 -13.6433 -13.6207
   -13.6054  -5.6000  -4.2757  -4.0702  -2.7367  -2.6490  -2.6099  -2.6078
    -2.3873  -2.3428  -2.3350  -2.0483  -2.0440  -2.0363  -2.0259  -1.9997
    -1.9888  -1.9702  -1.9670  -1.9579  -1.9489  -1.9456  -1.7809  -1.7583
    -1.7582   0.6473   1.0325   3.2390   4.8387   4.8473   4.9953   5.5759
     5.6957   5.8596

     occupation numbers 
     1.0000   1.0000   1.0000   1.0000   1.0000   1.0000   1.0000   1.0000
     1.0000   1.0000   1.0000   1.0000   1.0000   1.0000   1.0000   1.0000
     1.0000   1.0000   1.0000   1.0000   1.0000   1.0000   1.0000   1.0000
     1.0000   1.0000   1.0000   1.0000   1.0000   1.0000   1.0000   1.0000
     1.0000   0.9774   0.0226   0.0000   0.0000   0.0000   0.0000   0.0000
     0.0000   0.0000

     the Fermi energy is     0.8399 ev

!    total energy              =    -307.71821920 Ry
     estimated scf accuracy    <       0.00000025 Ry
     smearing contrib. (-TS)   =      -0.00076021 Ry
     internal energy E=F+TS    =    -307.71745898 Ry

     The total energy is F=E-TS. E is the sum of the following terms:
     one-electron contribution =    -158.32646024 Ry
     hartree contribution      =     102.70900029 Ry
     xc contribution           =     -87.85029684 Ry
     ewald contribution        =    -164.24970219 Ry

     total magnetization       =     1.00 Bohr mag/cell
     absolute magnetization    =     1.06 Bohr mag/cell

     convergence has been achieved in  17 iterations

     Forces acting on atoms (cartesian axes, Ry/au):

     atom    1 type  2   force =     0.00000000    0.00000000   -0.00000000
     atom    2 type  2   force =    -0.00000000    0.00000000   -0.00000000
     atom    3 type  2   force =     0.00000000   -0.00000000    0.00000000
     atom    4 type  2   force =     0.00000000   -0.00000000    0.00000000
     atom    5 type  2   force =     0.00000000    0.00000000    0.00000000
     atom    6 type  2   force =     0.00000000    0.00000000    0.00000000
     atom    7 type  2   force =    -0.00000000    0.00000000    0.00000000
     atom    8 type  1   force =     0.00000000   -0.00078673    0.00000000
     atom    9 type  1   force =     0.00000000    0.00078673    0.00000000
     atom   10 type  1   force =     0.00000000    0.00525907    0.00000000
     atom   11 type  1   force =     0.00000000   -0.00525907    0.00000000
     atom   12 type  1   force =    -0.00100885    0.00000000    0.00287221
     atom   13 type  1   force =     0.00100885    0.00000000    0.00287221
     atom   14 type  1   force =     0.00100885    0.00000000   -0.00287221
     atom   15 type  1   force =    -0.00100885    0.00000000   -0.00287221
     atom   16 type  3   force =     0.00000000    0.00000000    0.04959854
     atom   17 type  3   force =     0.00000000    0.00000000   -0.04959854
     The non-local contrib.  to forces
     atom    1 type  2   force =    -0.00000000    0.00000000   -0.00000000
     atom    2 type  2   force =    -0.00000000    0.00000000   -0.00000000
     atom    3 type  2   force =     0.00000000    0.00000000    0.00000000
     atom    4 type  2   force =    -0.00000000    0.00000000    0.00000000
     atom    5 type  2   force =     0.00000000    0.00000000    0.00000000
     atom    6 type  2   force =     0.00000000   -0.00000000    0.00000000
     atom    7 type  2   force =     0.00000000    0.00000000    0.00000000
     atom    8 type  1   force =     0.00000000   -0.00026455    0.00000000
     atom    9 type  1   force =     0.00000000    0.00026455    0.00000000
     atom   10 type  1   force =     0.00000000   -0.00002015    0.00000000
     atom   11 type  1   force =     0.00000000    0.00002015    0.00000000
     atom   12 type  1   force =    -0.00020349    0.00000000    0.00054661
     atom   13 type  1   force =     0.00020349    0.00000000    0.00054661
     atom   14 type  1   force =     0.00020349    0.00000000   -0.00054661
     atom   15 type  1   force =    -0.00020349    0.00000000   -0.00054661
     atom   16 type  3   force =     0.00000000   -0.00000000   -2.39304665
     atom   17 type  3   force =     0.00000000    0.00000000    2.39304665
     The ionic contribution  to forces
     atom    1 type  2   force =     0.00000000    0.00000000    0.00000000
     atom    2 type  2   force =     0.00000000    0.00000000   -0.00000000
     atom    3 type  2   force =    -0.00000000   -0.00000000    0.00000000
     atom    4 type  2   force =     0.00000000   -0.00000000   -0.00000000
     atom    5 type  2   force =     0.00000000   -0.00000000    0.00000000
     atom    6 type  2   force =    -0.00000000    0.00000000    0.00000000
     atom    7 type  2   force =     0.00000000   -0.00000000   -0.00000000
     atom    8 type  1   force =     0.00000000    0.02061119   -0.00000000
     atom    9 type  1   force =     0.00000000   -0.02061119   -0.00000000
     atom   10 type  1   force =     0.00000000   -0.20614450   -0.00000000
     atom   11 type  1   force =    -0.00000000    0.20614450    0.00000000
     atom   12 type  1   force =    -0.18885493    0.00000000    0.12389565
     atom   13 type  1   force =     0.18885493   -0.00000000    0.12389565
     atom   14 type  1   force =     0.18885493   -0.00000000   -0.12389565
     atom   15 type  1   force =    -0.18885493    0.00000000   -0.12389565
     atom   16 type  3   force =     0.00000000   -0.00000000    9.64976356
     atom   17 type  3   force =    -0.00000000    0.00000000   -9.64976356
     The local contribution  to forces
     atom    1 type  2   force =     0.00000000    0.00000000   -0.00000000
     atom    2 type  2   force =    -0.00000000   -0.00000000   -0.00000000
     atom    3 type  2   force =    -0.00000000    0.00000000    0.00000000
     atom    4 type  2   force =    -0.00000000    0.00000000   -0.00000000
     atom    5 type  2   force =    -0.00000000    0.00000000   -0.00000000
     atom    6 type  2   force =    -0.00000000    0.00000000    0.00000000
     atom    7 type  2   force =    -0.00000000    0.00000000    0.00000000
     atom    8 type  1   force =    -0.00000000   -0.02053781   -0.00000000
     atom    9 type  1   force =     0.00000000    0.02053781    0.00000000
     atom   10 type  1   force =    -0.00000000    0.21483912   -0.00000000
     atom   11 type  1   force =    -0.00000000   -0.21483912   -0.00000000
     atom   12 type  1   force =     0.18646909    0.00000000   -0.12252336
     atom   13 type  1   force =    -0.18646909    0.00000000   -0.12252336
     atom   14 type  1   force =    -0.18646909   -0.00000000    0.12252336
     atom   15 type  1   force =     0.18646909   -0.00000000    0.12252336
     atom   16 type  3   force =    -0.00000000    0.00000000   -7.20652772
     atom   17 type  3   force =     0.00000000   -0.00000000    7.20652772
     The core correction contribution to forces
     atom    1 type  2   force =     0.00000000    0.00000000    0.00000000
     atom    2 type  2   force =     0.00000000    0.00000000    0.00000000
     atom    3 type  2   force =     0.00000000    0.00000000    0.00000000
     atom    4 type  2   force =     0.00000000    0.00000000    0.00000000
     atom    5 type  2   force =     0.00000000    0.00000000    0.00000000
     atom    6 type  2   force =     0.00000000    0.00000000    0.00000000
     atom    7 type  2   force =     0.00000000    0.00000000    0.00000000
     atom    8 type  1   force =    -0.00000000   -0.00059266   -0.00000000
     atom    9 type  1   force =    -0.00000000    0.00059266    0.00000000
     atom   10 type  1   force =    -0.00000000   -0.00342317    0.00000000
     atom   11 type  1   force =    -0.00000000    0.00342317    0.00000000
     atom   12 type  1   force =     0.00157304   -0.00000000    0.00095654
     atom   13 type  1   force =    -0.00157304    0.00000000    0.00095654
     atom   14 type  1   force =    -0.00157304   -0.00000000   -0.00095654
     atom   15 type  1   force =     0.00157304   -0.00000000   -0.00095654
     atom   16 type  3   force =     0.00000000    0.00000000    0.00000000
     atom   17 type  3   force =     0.00000000    0.00000000    0.00000000
     The Hubbard contrib.    to forces
     atom    1 type  2   force =     0.00000000    0.00000000    0.00000000
     atom    2 type  2   force =     0.00000000    0.00000000    0.00000000
     atom    3 type  2   force =     0.00000000    0.00000000    0.00000000
     atom    4 type  2   force =     0.00000000    0.00000000    0.00000000
     atom    5 type  2   force =     0.00000000    0.00000000    0.00000000
     atom    6 type  2   force =     0.00000000    0.00000000    0.00000000
     atom    7 type  2   force =     0.00000000    0.00000000    0.00000000
     atom    8 type  1   force =     0.00000000    0.00000000    0.00000000
     atom    9 type  1   force =     0.00000000    0.00000000    0.00000000
     atom   10 type  1   force =     0.00000000    0.00000000    0.00000000
     atom   11 type  1   force =     0.00000000    0.00000000    0.00000000
     atom   12 type  1   force =     0.00000000    0.00000000    0.00000000
     atom   13 type  1   force =     0.00000000    0.00000000    0.00000000
     atom   14 type  1   force =     0.00000000    0.00000000    0.00000000
     atom   15 type  1   force =     0.00000000    0.00000000    0.00000000
     atom   16 type  3   force =     0.00000000    0.00000000    0.00000000
     atom   17 type  3   force =     0.00000000    0.00000000    0.00000000
     The SCF correction term to forces
     atom    1 type  2   force =     0.00000000    0.00000000   -0.00000000
     atom    2 type  2   force =    -0.00000000   -0.00000000    0.00000000
     atom    3 type  2   force =    -0.00000000   -0.00000000    0.00000000
     atom    4 type  2   force =     0.00000000   -0.00000000    0.00000000
     atom    5 type  2   force =    -0.00000000   -0.00000000    0.00000000
     atom    6 type  2   force =     0.00000000   -0.00000000    0.00000000
     atom    7 type  2   force =    -0.00000000   -0.00000000    0.00000000
     atom    8 type  1   force =    -0.00000000   -0.00000290   -0.00000000
     atom    9 type  1   force =     0.00000000    0.00000290    0.00000000
     atom   10 type  1   force =     0.00000000    0.00000777   -0.00000000
     atom   11 type  1   force =    -0.00000000   -0.00000777    0.00000000
     atom   12 type  1   force =     0.00000745    0.00000000   -0.00000323
     atom   13 type  1   force =    -0.00000745    0.00000000   -0.00000323
     atom   14 type  1   force =    -0.00000745   -0.00000000    0.00000323
     atom   15 type  1   force =     0.00000745   -0.00000000    0.00000323
     atom   16 type  3   force =    -0.00000000   -0.00000000   -0.00059064
     atom   17 type  3   force =     0.00000000    0.00000000    0.00059064

     Total force =     0.070807     Total SCF correction =     0.000836


     Computing stress (Cartesian axis) and pressure

          total   stress  (Ry/bohr**3)                   (kbar)     P=      -57.69
  -0.00038930  -0.00000000   0.00000000          -57.27       -0.00        0.00
  -0.00000000  -0.00045991   0.00000000           -0.00      -67.66        0.00
   0.00000000   0.00000000  -0.00032724            0.00        0.00      -48.14

     kinetic stress (kbar)   3399.27      0.00      0.00
                               -0.00   3532.30     -0.00
                                0.00      0.00   3252.86

     local   stress (kbar)  -4258.41      0.00      0.00
                                0.00  -4496.35     -0.00
                                0.00     -0.00  -5824.38

     nonloc. stress (kbar)   3037.40      0.00     -0.00
                                0.00   3034.16      0.00
                               -0.00      0.00   3038.36

     hartree stress (kbar)   1194.42     -0.00      0.00
                               -0.00   1269.58      0.00
                                0.00      0.00   1804.48

     exc-cor stress (kbar)    453.74      0.00      0.00
                                0.00    454.22     -0.00
                                0.00     -0.00    457.00

     corecor stress (kbar)  -1232.61     -0.00      0.00
                               -0.00  -1231.54      0.00
                                0.00      0.00  -1231.51

     ewald   stress (kbar)  -2651.07     -0.00      0.00
                               -0.00  -2630.01     -0.00
                                0.00     -0.00  -1544.95

     hubbard stress (kbar)      0.00      0.00      0.00
                                0.00      0.00      0.00
                                0.00      0.00      0.00

     DFT-D   stress (kbar)      0.00      0.00      0.00
                                0.00      0.00      0.00
                                0.00      0.00      0.00

     XDM     stress (kbar)      0.00      0.00      0.00
                                0.00      0.00      0.00
                                0.00      0.00      0.00

     dft-nl  stress (kbar)      0.00      0.00      0.00
                                0.00      0.00      0.00
                                0.00      0.00      0.00

     TS-vdW  stress (kbar)      0.00      0.00      0.00
                                0.00      0.00      0.00
                                0.00      0.00      0.00

     MDB     stress (kbar)      0.00      0.00      0.00
                                0.00      0.00      0.00
                                0.00      0.00      0.00

     3D-RISM stress (kbar)      0.00      0.00      0.00
                                0.00      0.00      0.00
                                0.00      0.00      0.00


     Writing all to output data dir /tmp/ceresoli/superox.save/
 
     init_run     :      0.85s CPU      0.88s WALL (       1 calls)
     electrons    :      7.59s CPU      7.73s WALL (       1 calls)
     forces       :      0.40s CPU      0.40s WALL (       1 calls)
     stress       :      0.83s CPU      0.85s WALL (       1 calls)

     Called by init_run:
     wfcinit      :      0.29s CPU      0.30s WALL (       1 calls)
     wfcinit:atom :      0.01s CPU      0.01s WALL (       2 calls)
     wfcinit:wfcr :      0.26s CPU      0.28s WALL (       2 calls)
     potinit      :      0.25s CPU      0.26s WALL (       1 calls)
     hinit0       :      0.29s CPU      0.29s WALL (       1 calls)

     Called by electrons:
     c_bands      :      5.07s CPU      5.17s WALL (      17 calls)
     sum_band     :      0.95s CPU      0.97s WALL (      17 calls)
     v_of_rho     :      1.20s CPU      1.23s WALL (      18 calls)
     v_h          :      0.04s CPU      0.04s WALL (      18 calls)
     v_xc         :      1.29s CPU      1.32s WALL (      20 calls)
     mix_rho      :      0.36s CPU      0.36s WALL (      17 calls)

     Called by c_bands:
     init_us_2    :      0.12s CPU      0.12s WALL (      74 calls)
     init_us_2:cp :      0.12s CPU      0.12s WALL (      74 calls)
     cegterg      :      4.77s CPU      4.87s WALL (      34 calls)

     Called by sum_band:
     sum_band:wei :      0.00s CPU      0.00s WALL (      17 calls)
     sum_band:loo :      0.85s CPU      0.86s WALL (      17 calls)
     sum_band:buf :      0.04s CPU      0.04s WALL (      34 calls)
     sum_band:ini :      0.06s CPU      0.06s WALL (      34 calls)

     Called by *egterg:
     cdiaghg      :      0.16s CPU      0.17s WALL (     165 calls)
     cegterg:over :      0.26s CPU      0.26s WALL (     131 calls)
     cegterg:upda :      0.22s CPU      0.22s WALL (     131 calls)
     cegterg:last :      0.25s CPU      0.25s WALL (      70 calls)
     h_psi        :      3.98s CPU      4.09s WALL (     167 calls)
     g_psi        :      0.02s CPU      0.02s WALL (     131 calls)

     Called by h_psi:
     h_psi:calbec :      0.28s CPU      0.28s WALL (     167 calls)
     vloc_psi     :      3.35s CPU      3.46s WALL (     167 calls)
     add_vuspsi   :      0.28s CPU      0.28s WALL (     167 calls)

     General routines
     calbec       :      0.30s CPU      0.31s WALL (     177 calls)
     fft          :      0.29s CPU      0.31s WALL (     382 calls)
     ffts         :      0.02s CPU      0.02s WALL (      34 calls)
     fftw         :      3.45s CPU      3.54s WALL (    8748 calls)
 
     Parallel routines
 
     PWSCF        :      9.78s CPU      9.99s WALL

 
   This run was terminated on:  11: 0:26  24Jun2022            

=------------------------------------------------------------------------------=
   JOB DONE.
=------------------------------------------------------------------------------=
