
     Program PWSCF v.4.3        starts on 14Apr2011 at 15:55:28 

     This program is part of the open-source Quantum ESPRESSO suite
     for quantum simulation of materials; please cite
         "P. Giannozzi et al., J. Phys.:Condens. Matter 21 395502 (2009);
          URL http://www.quantum-espresso.org", 
     in publications or presentations arising from this work. More details at
     http://www.quantum-espresso.org/wiki/index.php/Citing_Quantum-ESPRESSO

     Current dimensions of program PWSCF are:
     Max number of different atomic species (ntypx) = 10
     Max number of k-points (npk) =  40000
     Max angular momentum in pseudopotentials (lmaxx) =  3
     Waiting for input...
 
   Stick Mesh
   ----------
   nst =  2383,  nstw =   283, nsts =   955
               n.st   n.stw   n.sts    n.g    n.gw   n.gs
   min        2383     283     955  103091    4169   26171
   max        2383     283     955  103091    4169   26171
       2383     283     955  103091    4169   26171
 


     bravais-lattice index     =            0
     lattice parameter (a_0)   =       4.6415  a.u.
     unit-cell volume          =     762.0804 (a.u.)^3
     number of atoms/cell      =            9
     number of atomic types    =            2
     number of electrons       =        48.00
     number of Kohn-Sham states=           24
     kinetic-energy cutoff     =      40.0000  Ry
     charge density cutoff     =     400.0000  Ry
     convergence threshold     =      1.0E-10
     mixing beta               =       0.7000
     number of iterations used =            8  plain     mixing
     Exchange-correlation      =  SLA  PW   PBX  PBC (1434)
     EXX-fraction              =        0.00

     celldm(1)=   4.641538  celldm(2)=   0.000000  celldm(3)=   0.000000
     celldm(4)=   0.000000  celldm(5)=   0.000000  celldm(6)=   0.000000

     crystal axes: (cart. coord. in units of a_0)
               a(1) = (   1.000000  -1.732058   0.000000 )  
               a(2) = (   1.000000   1.732058   0.000000 )  
               a(3) = (   0.000000   0.000000   2.200000 )  

     reciprocal axes: (cart. coord. in units 2 pi/a_0)
               b(1) = (  0.500000 -0.288674  0.000000 )  
               b(2) = (  0.500000  0.288674  0.000000 )  
               b(3) = (  0.000000  0.000000  0.454545 )  


     PseudoPot. # 1 for Si read from file Si.pbe-tm-gipaw.UPF
     MD5 check sum: 744ed8b2dc623e0d56f5dfff7afbe95f
     Pseudo is Norm-conserving, Zval =  4.0
     Generated by new atomic code, or converted to UPF format
     Using radial grid of 1141 points,  2 beta functions with: 
                l(1) =   0
                l(2) =   1

     PseudoPot. # 2 for O  read from file O.pbe-rrkjus-gipaw-dc.UPF
     MD5 check sum: 076ad46ec5cb747f63175931fb098378
     Pseudo is Ultrasoft + core correction, Zval =  6.0
     Generated by new atomic code, or converted to UPF format
     Using radial grid of  685 points,  4 beta functions with: 
                l(1) =   0
                l(2) =   0
                l(3) =   1
                l(4) =   1
     Q(r) pseudized with 0 coefficients 


     atomic species   valence    mass     pseudopotential
        Si             4.00    28.08600     Si( 1.00)
        O              6.00    15.99900     O ( 1.00)

      2 Sym.Ops. (no inversion)

                                    s                        frac. trans.

      isym =  1     identity                                     

 cryst.   s( 1) = (     1          0          0      )    f =(  0.0000000 )
                  (     0          1          0      )       (  0.0000000 )
                  (     0          0          1      )       (  0.0000000 )

 cart.    s( 1) = (  1.0000000  0.0000000  0.0000000 )    f =(  0.0000000 )
                  (  0.0000000  1.0000000  0.0000000 )       (  0.0000000 )
                  (  0.0000000  0.0000000  1.0000000 )       (  0.0000000 )


      isym =  2     180 deg rotation - cart. axis [1,0,0]        

 cryst.   s( 2) = (     0          1          0      )    f =(  0.0000000 )
                  (     1          0          0      )       (  0.0000000 )
                  (     0          0         -1      )       (  0.0000000 )

 cart.    s( 2) = (  1.0000000  0.0000000  0.0000000 )    f =(  0.0000000 )
                  (  0.0000000 -1.0000000  0.0000000 )       (  0.0000000 )
                  (  0.0000000  0.0000000 -1.0000000 )       (  0.0000000 )


     point group C_2  (2)   
     there are  2 classes
     the character table:

       E     C2   
A      1.00  1.00
B      1.00 -1.00

     the symmetry operations in each class:
     E        1
     C2       2

   Cartesian axes

     site n.     atom                  positions (a_0 units)
         1           Si  tau(  1) = (   0.4701000  -0.8142405   0.7333333  )
         2           Si  tau(  2) = (   0.4701000   0.8142405   1.4666667  )
         3           Si  tau(  3) = (  -0.9402000   0.0000000   0.0000000  )
         4           O   tau(  4) = (   0.6813000  -0.2537465   0.4716800  )
         5           O   tau(  5) = (  -0.1209000   0.7168988   1.2050133  )
         6           O   tau(  6) = (  -0.5604000  -0.4631523   1.9383467  )
         7           O   tau(  7) = (   0.6813000   0.2537465  -0.4716800  )
         8           O   tau(  8) = (  -0.1209000  -0.7168988   0.9949867  )
         9           O   tau(  9) = (  -0.5604000   0.4631523   0.2616533  )

   Crystallographic axes

     site n.     atom                  positions (cryst. coord.)
         1           Si  tau(  1) = (  0.4701000  0.0000000  0.3333333  )
         2           Si  tau(  2) = (  0.0000000  0.4701000  0.6666667  )
         3           Si  tau(  3) = ( -0.4701000 -0.4701000  0.0000000  )
         4           O   tau(  4) = (  0.4139000  0.2674000  0.2144000  )
         5           O   tau(  5) = ( -0.2674000  0.1465000  0.5477333  )
         6           O   tau(  6) = ( -0.1465000 -0.4139000  0.8810667  )
         7           O   tau(  7) = (  0.2674000  0.4139000 -0.2144000  )
         8           O   tau(  8) = (  0.1465000 -0.2674000  0.4522667  )
         9           O   tau(  9) = ( -0.4139000 -0.1465000  0.1189333  )

     number of k points=    20
                       cart. coord. in units 2pi/a_0
        k(    1) = (   0.1250000   0.0000000   0.0568182), wk =   0.1250000
        k(    2) = (   0.1250000   0.0000000   0.1704545), wk =   0.1250000
        k(    3) = (   0.2500000   0.0721685   0.0568182), wk =   0.1250000
        k(    4) = (   0.2500000   0.0721685   0.1704545), wk =   0.1250000
        k(    5) = (  -0.1250000  -0.1443370   0.0568182), wk =   0.1250000
        k(    6) = (  -0.1250000  -0.1443370   0.1704545), wk =   0.1250000
        k(    7) = (   0.0000000  -0.0721685   0.0568182), wk =   0.0625000
        k(    8) = (   0.0000000  -0.0721685   0.1704545), wk =   0.0625000
        k(    9) = (   0.3750000   0.0000000   0.0568182), wk =   0.1250000
        k(   10) = (   0.3750000   0.0000000   0.1704545), wk =   0.1250000
        k(   11) = (   0.0000000  -0.2165054   0.0568182), wk =   0.0625000
        k(   12) = (   0.0000000  -0.2165054   0.1704545), wk =   0.0625000
        k(   13) = (  -0.2500000   0.0721685  -0.0568182), wk =   0.1250000
        k(   14) = (  -0.2500000   0.0721685  -0.1704545), wk =   0.1250000
        k(   15) = (   0.1250000  -0.1443370  -0.0568182), wk =   0.1250000
        k(   16) = (   0.1250000  -0.1443370  -0.1704545), wk =   0.1250000
        k(   17) = (   0.0000000  -0.0721685  -0.0568182), wk =   0.0625000
        k(   18) = (   0.0000000  -0.0721685  -0.1704545), wk =   0.0625000
        k(   19) = (   0.0000000  -0.2165054  -0.0568182), wk =   0.0625000
        k(   20) = (   0.0000000  -0.2165054  -0.1704545), wk =   0.0625000

                       cryst. coord.
        k(    1) = (   0.1250000   0.1250000   0.1250000), wk =   0.1250000
        k(    2) = (   0.1250000   0.1250000   0.3750000), wk =   0.1250000
        k(    3) = (   0.1250000   0.3750000   0.1250000), wk =   0.1250000
        k(    4) = (   0.1250000   0.3750000   0.3750000), wk =   0.1250000
        k(    5) = (   0.1250000  -0.3750000   0.1250000), wk =   0.1250000
        k(    6) = (   0.1250000  -0.3750000   0.3750000), wk =   0.1250000
        k(    7) = (   0.1250000  -0.1250000   0.1250000), wk =   0.0625000
        k(    8) = (   0.1250000  -0.1250000   0.3750000), wk =   0.0625000
        k(    9) = (   0.3750000   0.3750000   0.1250000), wk =   0.1250000
        k(   10) = (   0.3750000   0.3750000   0.3750000), wk =   0.1250000
        k(   11) = (   0.3750000  -0.3750000   0.1250000), wk =   0.0625000
        k(   12) = (   0.3750000  -0.3750000   0.3750000), wk =   0.0625000
        k(   13) = (  -0.3750000  -0.1250000  -0.1250000), wk =   0.1250000
        k(   14) = (  -0.3750000  -0.1250000  -0.3750000), wk =   0.1250000
        k(   15) = (   0.3750000  -0.1250000  -0.1250000), wk =   0.1250000
        k(   16) = (   0.3750000  -0.1250000  -0.3750000), wk =   0.1250000
        k(   17) = (   0.1250000  -0.1250000  -0.1250000), wk =   0.0625000
        k(   18) = (   0.1250000  -0.1250000  -0.3750000), wk =   0.0625000
        k(   19) = (   0.3750000  -0.3750000  -0.1250000), wk =   0.0625000
        k(   20) = (   0.3750000  -0.3750000  -0.3750000), wk =   0.0625000

     G cutoff =  218.2851  ( 103091 G-vectors)     FFT grid: ( 60, 60, 72)
     G cutoff =   87.3140  (  26171 G-vectors)  smooth grid: ( 40, 40, 45)

     Largest allocated arrays     est. size (Mb)     dimensions
        Kohn-Sham Wavefunctions         1.20 Mb     (   3267,  24)
        NL pseudopotentials             2.99 Mb     (   3267,  60)
        Each V/rho on FFT grid          3.96 Mb     ( 259200)
        Each G-vector array             0.79 Mb     ( 103091)
        G-vector shells                 0.10 Mb     (  13624)
     Largest temporary arrays     est. size (Mb)     dimensions
        Auxiliary wavefunctions         4.79 Mb     (   3267,  96)
        Each subspace H/S matrix        0.14 Mb     (     96,  96)
        Each <psi_i|beta_j> matrix      0.02 Mb     (     60,  24)
        Arrays for rho mixing          31.64 Mb     ( 259200,   8)

     Initial potential from superposition of free atoms

     starting charge   46.41466, renormalised to   48.00000
     Starting wfc are   75 atomic wfcs

     total cpu time spent up to now is     14.05 secs

     per-process dynamical memory:    66.8 Mb

     Self-consistent Calculation

     iteration #  1     ecut=    40.00 Ry     beta=0.70
     Davidson diagonalization with overlap
     ethr =  1.00E-04,  avg # of iterations =  4.0

     total cpu time spent up to now is     40.86 secs

     total energy              =    -216.51070992 Ry
     Harris-Foulkes estimate   =    -217.11511139 Ry
     estimated scf accuracy    <       0.97615029 Ry

     iteration #  2     ecut=    40.00 Ry     beta=0.70
     Davidson diagonalization with overlap
     ethr =  2.03E-03,  avg # of iterations =  2.0

     total cpu time spent up to now is     62.22 secs

     total energy              =    -216.74632220 Ry
     Harris-Foulkes estimate   =    -217.03369901 Ry
     estimated scf accuracy    <       0.56605138 Ry

     iteration #  3     ecut=    40.00 Ry     beta=0.70
     Davidson diagonalization with overlap
     ethr =  1.18E-03,  avg # of iterations =  2.0

     total cpu time spent up to now is     80.14 secs

     total energy              =    -216.86496631 Ry
     Harris-Foulkes estimate   =    -216.86414739 Ry
     estimated scf accuracy    <       0.00605323 Ry

     iteration #  4     ecut=    40.00 Ry     beta=0.70
     Davidson diagonalization with overlap
     ethr =  1.26E-05,  avg # of iterations =  2.0

     total cpu time spent up to now is     97.83 secs

     total energy              =    -216.86603972 Ry
     Harris-Foulkes estimate   =    -216.86613995 Ry
     estimated scf accuracy    <       0.00031616 Ry

     iteration #  5     ecut=    40.00 Ry     beta=0.70
     Davidson diagonalization with overlap
     ethr =  6.59E-07,  avg # of iterations =  2.0

     total cpu time spent up to now is    111.47 secs

     total energy              =    -216.86604212 Ry
     Harris-Foulkes estimate   =    -216.86606447 Ry
     estimated scf accuracy    <       0.00006284 Ry

     iteration #  6     ecut=    40.00 Ry     beta=0.70
     Davidson diagonalization with overlap
     ethr =  1.31E-07,  avg # of iterations =  2.0

     total cpu time spent up to now is    127.36 secs

     total energy              =    -216.86605711 Ry
     Harris-Foulkes estimate   =    -216.86605704 Ry
     estimated scf accuracy    <       0.00000165 Ry

     iteration #  7     ecut=    40.00 Ry     beta=0.70
     Davidson diagonalization with overlap
     ethr =  3.44E-09,  avg # of iterations =  2.0

     total cpu time spent up to now is    142.91 secs

     total energy              =    -216.86605750 Ry
     Harris-Foulkes estimate   =    -216.86605750 Ry
     estimated scf accuracy    <       0.00000003 Ry

     iteration #  8     ecut=    40.00 Ry     beta=0.70
     Davidson diagonalization with overlap
     ethr =  6.49E-11,  avg # of iterations =  2.0

     total cpu time spent up to now is    158.70 secs

     total energy              =    -216.86605750 Ry
     Harris-Foulkes estimate   =    -216.86605750 Ry
     estimated scf accuracy    <          9.0E-10 Ry

     iteration #  9     ecut=    40.00 Ry     beta=0.70
     Davidson diagonalization with overlap
     ethr =  1.88E-12,  avg # of iterations =  2.6

     total cpu time spent up to now is    174.89 secs

     total energy              =    -216.86605750 Ry
     Harris-Foulkes estimate   =    -216.86605750 Ry
     estimated scf accuracy    <          4.1E-10 Ry

     iteration # 10     ecut=    40.00 Ry     beta=0.70
     Davidson diagonalization with overlap
     ethr =  8.58E-13,  avg # of iterations =  2.0

     total cpu time spent up to now is    189.87 secs

     End of self-consistent calculation

          k = 0.1250 0.0000 0.0568 (  3260 PWs)   bands (ev):

   -16.7565 -15.6924 -15.2328 -14.7643 -14.7268 -14.7007  -5.9755  -5.1238
    -3.1527  -2.8769  -2.6858  -2.4584  -0.5741  -0.2534  -0.0464   0.3031
     0.5907   1.0259   1.0694   1.3452   1.6552   1.7654   2.2163   2.4697

     occupation numbers 
     0.1250   0.1250   0.1250   0.1250   0.1250   0.1250   0.1250   0.1250
     0.1250   0.1250   0.1250   0.1250   0.1250   0.1250   0.1250   0.1250
     0.1250   0.1250   0.1250   0.1250   0.1250   0.1250   0.1250   0.1250

          k = 0.1250 0.0000 0.1705 (  3261 PWs)   bands (ev):

   -16.5452 -16.1459 -14.9835 -14.7611 -14.7301 -14.6969  -6.3978  -4.3028
    -3.6061  -2.9069  -2.7700  -2.2484  -0.5315  -0.2106   0.0005   0.2746
     0.5277   0.9533   1.0510   1.2170   1.5108   2.0022   2.2741   2.4427

     occupation numbers 
     0.1250   0.1250   0.1250   0.1250   0.1250   0.1250   0.1250   0.1250
     0.1250   0.1250   0.1250   0.1250   0.1250   0.1250   0.1250   0.1250
     0.1250   0.1250   0.1250   0.1250   0.1250   0.1250   0.1250   0.1250

          k = 0.2500 0.0722 0.0568 (  3257 PWs)   bands (ev):

   -16.4214 -15.9370 -15.3512 -14.7899 -14.7606 -14.7226  -5.8340  -4.7549
    -3.5677  -2.8664  -2.7049  -2.1265  -0.5790  -0.3302  -0.1231   0.3190
     0.5200   0.7992   0.9403   1.3479   1.5633   1.8302   2.2598   2.4902

     occupation numbers 
     0.1250   0.1250   0.1250   0.1250   0.1250   0.1250   0.1250   0.1250
     0.1250   0.1250   0.1250   0.1250   0.1250   0.1250   0.1250   0.1250
     0.1250   0.1250   0.1250   0.1250   0.1250   0.1250   0.1250   0.1250

          k = 0.2500 0.0722 0.1705 (  3248 PWs)   bands (ev):

   -16.3655 -15.9366 -15.4188 -14.8086 -14.7517 -14.7216  -5.7116  -4.7009
    -3.8522  -2.7854  -2.4545  -2.4183  -0.6725  -0.5053   0.0390   0.3702
     0.5879   0.8490   1.2720   1.4047   1.6444   1.8516   2.0220   2.3110

     occupation numbers 
     0.1250   0.1250   0.1250   0.1250   0.1250   0.1250   0.1250   0.1250
     0.1250   0.1250   0.1250   0.1250   0.1250   0.1250   0.1250   0.1250
     0.1250   0.1250   0.1250   0.1250   0.1250   0.1250   0.1250   0.1250

          k =-0.1250-0.1443 0.0568 (  3254 PWs)   bands (ev):

   -16.5980 -15.7787 -15.3243 -14.7790 -14.7430 -14.7149  -5.8749  -4.9629
    -3.3619  -2.8848  -2.6796  -2.2664  -0.5824  -0.2329  -0.0735   0.1861
     0.5112   0.9160   1.1195   1.3265   1.5575   1.8147   2.2067   2.5101

     occupation numbers 
     0.1250   0.1250   0.1250   0.1250   0.1250   0.1250   0.1250   0.1250
     0.1250   0.1250   0.1250   0.1250   0.1250   0.1250   0.1250   0.1250
     0.1250   0.1250   0.1250   0.1250   0.1250   0.1250   0.1250   0.1250

          k =-0.1250-0.1443 0.1705 (  3258 PWs)   bands (ev):

   -16.4439 -16.0516 -15.2122 -14.7839 -14.7384 -14.7153  -6.0500  -4.4842
    -3.7599  -2.8357  -2.5889  -2.3203  -0.6205  -0.4071   0.0790   0.2212
     0.5261   1.0016   1.1626   1.3805   1.6326   1.7814   2.1347   2.4098

     occupation numbers 
     0.1250   0.1250   0.1250   0.1250   0.1250   0.1250   0.1250   0.1250
     0.1250   0.1250   0.1250   0.1250   0.1250   0.1250   0.1250   0.1250
     0.1250   0.1250   0.1250   0.1250   0.1250   0.1250   0.1250   0.1250

          k = 0.0000-0.0722 0.0568 (  3263 PWs)   bands (ev):

   -16.8441 -15.6674 -15.1627 -14.7475 -14.7139 -14.6913  -6.0761  -5.1756
    -3.0346  -2.8842  -2.7344  -2.5213  -0.5236  -0.2568  -0.1007   0.2541
     0.8273   1.0275   1.0805   1.3374   1.6274   1.8651   2.2111   2.4211

     occupation numbers 
     0.0625   0.0625   0.0625   0.0625   0.0625   0.0625   0.0625   0.0625
     0.0625   0.0625   0.0625   0.0625   0.0625   0.0625   0.0625   0.0625
     0.0625   0.0625   0.0625   0.0625   0.0625   0.0625   0.0625   0.0625

          k = 0.0000-0.0722 0.1705 (  3267 PWs)   bands (ev):

   -16.6123 -16.1900 -14.8477 -14.7402 -14.7314 -14.6813  -6.6048  -4.2070
    -3.4690  -2.9875  -2.9078  -2.1968  -0.4272  -0.0843  -0.0631   0.3649
     0.5671   0.8709   0.9289   1.1096   1.4364   2.1284   2.3763   2.4510

     occupation numbers 
     0.0625   0.0625   0.0625   0.0625   0.0625   0.0625   0.0625   0.0625
     0.0625   0.0625   0.0625   0.0625   0.0625   0.0625   0.0625   0.0625
     0.0625   0.0625   0.0625   0.0625   0.0625   0.0625   0.0625   0.0625

          k = 0.3750 0.0000 0.0568 (  3245 PWs)   bands (ev):

   -16.2975 -16.0440 -15.3805 -14.7881 -14.7649 -14.7260  -5.8441  -4.4608
    -3.9180  -2.8380  -2.6672  -2.0531  -0.5137  -0.3364  -0.2503   0.4414
     0.5281   0.6830   0.9890   1.2511   1.4642   2.0154   2.1699   2.5090

     occupation numbers 
     0.1250   0.1250   0.1250   0.1250   0.1250   0.1250   0.1250   0.1250
     0.1250   0.1250   0.1250   0.1250   0.1250   0.1250   0.1250   0.1250
     0.1250   0.1250   0.1250   0.1250   0.1250   0.1250   0.1250   0.1250

          k = 0.3750 0.0000 0.1705 (  3250 PWs)   bands (ev):

   -16.3307 -15.8565 -15.5318 -14.8116 -14.7649 -14.7312  -5.5005  -4.8061
    -3.9798  -2.7409  -2.4643  -2.4043  -0.6958  -0.3791  -0.1396   0.4998
     0.5985   0.7050   1.4123   1.4461   1.6508   1.8879   1.9484   2.2025

     occupation numbers 
     0.1250   0.1250   0.1250   0.1250   0.1250   0.1250   0.1250   0.1250
     0.1250   0.1250   0.1250   0.1250   0.1250   0.1250   0.1250   0.1250
     0.1250   0.1250   0.1250   0.1250   0.1250   0.1250   0.1250   0.1250

          k = 0.0000-0.2165 0.0568 (  3262 PWs)   bands (ev):

   -16.5333 -15.8456 -15.3172 -14.7874 -14.7563 -14.7168  -5.8443  -4.9241
    -3.3549  -2.8643  -2.7579  -2.2202  -0.6390  -0.2630  -0.0251   0.2701
     0.5255   0.8501   0.9234   1.4517   1.6055   1.7075   2.3089   2.4572

     occupation numbers 
     0.0625   0.0625   0.0625   0.0625   0.0625   0.0625   0.0625   0.0625
     0.0625   0.0625   0.0625   0.0625   0.0625   0.0625   0.0625   0.0625
     0.0625   0.0625   0.0625   0.0625   0.0625   0.0625   0.0625   0.0625

          k = 0.0000-0.2165 0.1705 (  3249 PWs)   bands (ev):

   -16.4098 -16.0173 -15.2848 -14.8011 -14.7447 -14.7114  -5.9262  -4.5794
    -3.7561  -2.8273  -2.5070  -2.3943  -0.6599  -0.4783   0.1174   0.2993
     0.5588   0.9614   1.1292   1.3701   1.6169   1.8717   2.1134   2.3522

     occupation numbers 
     0.0625   0.0625   0.0625   0.0625   0.0625   0.0625   0.0625   0.0625
     0.0625   0.0625   0.0625   0.0625   0.0625   0.0625   0.0625   0.0625
     0.0625   0.0625   0.0625   0.0625   0.0625   0.0625   0.0625   0.0625

          k =-0.2500 0.0722-0.0568 (  3257 PWs)   bands (ev):

   -16.4235 -15.9296 -15.3608 -14.7874 -14.7569 -14.7243  -5.8350  -4.7553
    -3.5688  -2.8769  -2.6949  -2.1153  -0.5306  -0.3587  -0.1501   0.2443
     0.5609   0.7757   1.0408   1.3113   1.5299   1.8866   2.2045   2.5143

     occupation numbers 
     0.1250   0.1250   0.1250   0.1250   0.1250   0.1250   0.1250   0.1250
     0.1250   0.1250   0.1250   0.1250   0.1250   0.1250   0.1250   0.1250
     0.1250   0.1250   0.1250   0.1250   0.1250   0.1250   0.1250   0.1250

          k =-0.2500 0.0722-0.1705 (  3248 PWs)   bands (ev):

   -16.3683 -15.9271 -15.4295 -14.8051 -14.7501 -14.7224  -5.7125  -4.7029
    -3.8494  -2.7963  -2.4710  -2.3836  -0.6596  -0.5168   0.0308   0.3639
     0.5348   0.9096   1.2802   1.4634   1.5950   1.8258   1.9843   2.3554

     occupation numbers 
     0.1250   0.1250   0.1250   0.1250   0.1250   0.1250   0.1250   0.1250
     0.1250   0.1250   0.1250   0.1250   0.1250   0.1250   0.1250   0.1250
     0.1250   0.1250   0.1250   0.1250   0.1250   0.1250   0.1250   0.1250

          k = 0.1250-0.1443-0.0568 (  3254 PWs)   bands (ev):

   -16.5968 -15.7883 -15.3093 -14.7818 -14.7503 -14.7117  -5.8734  -4.9627
    -3.3589  -2.8687  -2.6924  -2.2847  -0.6214  -0.2360  -0.0334   0.2730
     0.5014   0.9016   1.0136   1.3731   1.5965   1.7581   2.2673   2.4766

     occupation numbers 
     0.1250   0.1250   0.1250   0.1250   0.1250   0.1250   0.1250   0.1250
     0.1250   0.1250   0.1250   0.1250   0.1250   0.1250   0.1250   0.1250
     0.1250   0.1250   0.1250   0.1250   0.1250   0.1250   0.1250   0.1250

          k = 0.1250-0.1443-0.1705 (  3258 PWs)   bands (ev):

   -16.4408 -16.0592 -15.2006 -14.7887 -14.7440 -14.7124  -6.0487  -4.4815
    -3.7634  -2.8229  -2.5838  -2.3489  -0.6361  -0.3948   0.0730   0.2564
     0.5739   0.9353   1.1498   1.3574   1.6116   1.8573   2.1981   2.3299

     occupation numbers 
     0.1250   0.1250   0.1250   0.1250   0.1250   0.1250   0.1250   0.1250
     0.1250   0.1250   0.1250   0.1250   0.1250   0.1250   0.1250   0.1250
     0.1250   0.1250   0.1250   0.1250   0.1250   0.1250   0.1250   0.1250

          k = 0.0000-0.0722-0.0568 (  3263 PWs)   bands (ev):

   -16.8442 -15.6653 -15.1669 -14.7477 -14.7087 -14.6940  -6.0764  -5.1757
    -3.0387  -2.8808  -2.7453  -2.5073  -0.5040  -0.2791  -0.0943   0.2422
     0.7910   1.0704   1.0909   1.3238   1.6514   1.8423   2.2016   2.4327

     occupation numbers 
     0.0625   0.0625   0.0625   0.0625   0.0625   0.0625   0.0625   0.0625
     0.0625   0.0625   0.0625   0.0625   0.0625   0.0625   0.0625   0.0625
     0.0625   0.0625   0.0625   0.0625   0.0625   0.0625   0.0625   0.0625

          k = 0.0000-0.0722-0.1705 (  3267 PWs)   bands (ev):

   -16.6128 -16.1890 -14.8544 -14.7428 -14.7214 -14.6825  -6.6051  -4.2075
    -3.4690  -2.9796  -2.9183  -2.1903  -0.4232  -0.0767  -0.0637   0.3418
     0.5443   0.8690   0.9878   1.0857   1.4372   2.1288   2.3292   2.4954

     occupation numbers 
     0.0625   0.0625   0.0625   0.0625   0.0625   0.0625   0.0625   0.0625
     0.0625   0.0625   0.0625   0.0625   0.0625   0.0625   0.0625   0.0625
     0.0625   0.0625   0.0625   0.0625   0.0625   0.0625   0.0625   0.0625

          k = 0.0000-0.2165-0.0568 (  3262 PWs)   bands (ev):

   -16.5361 -15.8293 -15.3418 -14.7830 -14.7416 -14.7247  -5.8469  -4.9244
    -3.3585  -2.9086  -2.7148  -2.1938  -0.5719  -0.2511  -0.0988   0.1033
     0.5713   0.8674   1.0663   1.4058   1.5110   1.8362   2.1919   2.5223

     occupation numbers 
     0.0625   0.0625   0.0625   0.0625   0.0625   0.0625   0.0625   0.0625
     0.0625   0.0625   0.0625   0.0625   0.0625   0.0625   0.0625   0.0625
     0.0625   0.0625   0.0625   0.0625   0.0625   0.0625   0.0625   0.0625

          k = 0.0000-0.2165-0.1705 (  3249 PWs)   bands (ev):

   -16.4158 -16.0017 -15.3053 -14.7940 -14.7371 -14.7148  -5.9282  -4.5838
    -3.7500  -2.8515  -2.5201  -2.3388  -0.6272  -0.5087   0.1343   0.2294
     0.4914   1.0494   1.1954   1.4128   1.6053   1.7515   2.0558   2.4456

     occupation numbers 
     0.0625   0.0625   0.0625   0.0625   0.0625   0.0625   0.0625   0.0625
     0.0625   0.0625   0.0625   0.0625   0.0625   0.0625   0.0625   0.0625
     0.0625   0.0625   0.0625   0.0625   0.0625   0.0625   0.0625   0.0625

!    total energy              =    -216.86605750 Ry
     Harris-Foulkes estimate   =    -216.86605750 Ry
     estimated scf accuracy    <          1.2E-11 Ry

     The total energy is the sum of the following terms:

     one-electron contribution =    -104.99801743 Ry
     hartree contribution      =      78.02551117 Ry
     xc contribution           =     -50.93158684 Ry
     ewald contribution        =    -138.96196441 Ry

     convergence has been achieved in  10 iterations

     Forces acting on atoms (Ry/au):

     atom   1 type  1   force =     0.00072358   -0.00125435   -0.00000546
     atom   2 type  1   force =     0.00072358    0.00125435    0.00000546
     atom   3 type  1   force =    -0.00145217    0.00000000    0.00000000
     atom   4 type  2   force =    -0.00505700    0.01076940    0.00446909
     atom   5 type  2   force =    -0.00680316   -0.00978850    0.00447488
     atom   6 type  2   force =     0.01186267   -0.00098370    0.00447563
     atom   7 type  2   force =    -0.00505700   -0.01076940   -0.00446909
     atom   8 type  2   force =    -0.00680316    0.00978850   -0.00447488
     atom   9 type  2   force =     0.01186267    0.00098370   -0.00447563

     Total force =     0.031258     Total SCF correction =     0.000007


     entering subroutine stress ...

          total   stress  (Ry/bohr**3)                   (kbar)     P=   28.76
   0.00019830   0.00000000   0.00000000         29.17      0.00      0.00
   0.00000000   0.00019749  -0.00000002          0.00     29.05      0.00
   0.00000000  -0.00000002   0.00019079          0.00      0.00     28.07

     kinetic stress (kbar)  14907.56      0.00      0.00
                                0.00  14907.54      0.00
                                0.00      0.00  14878.85

     local   stress (kbar) -10954.50      0.00      0.00
                                0.00 -10954.53      0.02
                                0.00      0.02 -12193.04

     nonloc. stress (kbar)   3510.56      0.00      0.00
                                0.00   3510.51      0.00
                                0.00      0.00   3518.10

     hartree stress (kbar)   4873.93      0.00      0.00
                                0.00   4873.92     -0.01
                                0.00     -0.01   5313.49

     exc-cor stress (kbar)  -3088.86      0.00      0.00
                                0.00  -3088.86      0.00
                                0.00      0.00  -3087.87

     corecor stress (kbar)     -5.52      0.00      0.00
                                0.00     -5.52      0.00
                                0.00      0.00     -5.52

     ewald   stress (kbar)  -9213.99      0.00      0.00
                                0.00  -9214.01     -0.02
                                0.00     -0.02  -8395.95

     hubbard stress (kbar)      0.00      0.00      0.00
                                0.00      0.00      0.00
                                0.00      0.00      0.00

     london  stress (kbar)      0.00      0.00      0.00
                                0.00      0.00      0.00
                                0.00      0.00      0.00

     dft-nl  stress (kbar)      0.00      0.00      0.00
                                0.00      0.00      0.00
                                0.00      0.00      0.00



     Writing output data file quartz.save
 
     init_run     :     13.84s CPU     14.00s WALL (       1 calls)
     electrons    :    151.88s CPU    175.83s WALL (       1 calls)
     forces       :      3.17s CPU      3.29s WALL (       1 calls)
     stress       :      8.38s CPU      8.58s WALL (       1 calls)

     Called by init_run:
     wfcinit      :     11.84s CPU     11.95s WALL (       1 calls)
     potinit      :      0.68s CPU      0.69s WALL (       1 calls)

     Called by electrons:
     c_bands      :    115.21s CPU    133.23s WALL (      10 calls)
     sum_band     :     27.70s CPU     31.66s WALL (      10 calls)
     v_of_rho     :      3.06s CPU      3.97s WALL (      11 calls)
     v_h          :      0.19s CPU      0.27s WALL (      11 calls)
     v_xc         :      3.39s CPU      4.27s WALL (      13 calls)
     newd         :      5.75s CPU      6.60s WALL (      11 calls)
     mix_rho      :      0.46s CPU      0.56s WALL (      10 calls)

     Called by c_bands:
     init_us_2    :      2.08s CPU      2.45s WALL (     460 calls)
     cegterg      :    112.67s CPU    129.46s WALL (     200 calls)

     Called by sum_band:
     sum_band:bec :      0.00s CPU      0.01s WALL (     200 calls)
     addusdens    :      4.18s CPU      4.88s WALL (      10 calls)

     Called by *egterg:
     h_psi        :    106.30s CPU    118.80s WALL (     672 calls)
     s_psi        :      3.39s CPU      3.74s WALL (     672 calls)
     g_psi        :      0.56s CPU      0.69s WALL (     452 calls)
     cdiaghg      :      1.07s CPU      1.35s WALL (     652 calls)
     cegterg:over :      4.15s CPU      4.60s WALL (     452 calls)
     cegterg:upda :      2.92s CPU      3.30s WALL (     452 calls)
     cegterg:last :      1.79s CPU      2.05s WALL (     220 calls)

     Called by h_psi:
     h_psi:vloc   :     98.47s CPU    110.19s WALL (     672 calls)
     h_psi:vnl    :      7.29s CPU      8.00s WALL (     672 calls)
     add_vuspsi   :      3.52s CPU      3.80s WALL (     672 calls)

     General routines
     calbec       :      5.09s CPU      5.64s WALL (     912 calls)
     fft          :      2.51s CPU      2.93s WALL (     197 calls)
     ffts         :      0.04s CPU      0.06s WALL (      21 calls)
     fftw         :     69.91s CPU     79.05s WALL (   36412 calls)
     interpolate  :      0.41s CPU      0.50s WALL (      21 calls)
     davcio       :      0.18s CPU      1.23s WALL (     660 calls)
 
 
     PWSCF        :  2m57.41s CPU     3m21.90s WALL

 
   This run was terminated on:  15:58:50  14Apr2011            

=------------------------------------------------------------------------------=
   JOB DONE.
=------------------------------------------------------------------------------=
