
     Program PWSCF v.5.4.0 (svn rev. 12544M) starts on 27Jun2016 at 14: 6:39 

     This program is part of the open-source Quantum ESPRESSO suite
     for quantum simulation of materials; please cite
         "P. Giannozzi et al., J. Phys.:Condens. Matter 21 395502 (2009);
          URL http://www.quantum-espresso.org", 
     in publications or presentations arising from this work. More details at
     http://www.quantum-espresso.org/quote
 
           HOST :    @host@
           ARCH :    x86_64
             CC :    icc
            CPP :    cpp
            F90 :    mpif90
            F77 :    ifort
         DFLAGS :    -D__INTEL -D__DFTI -D__MPI -D__PARA -D__SCALAPACK
      BLAS LIBS :    -L/opt/intel/xe2016/mkl/lib/intel64 -lmkl_intel_lp64  -lmkl_sequential -lmkl_core
    LAPACK LIBS :    
       FFT LIBS :    
      MASS LIBS :    

     Parallel version (MPI), running on     4 processors
     R & G space division:  proc/nbgrp/npool/nimage =       4
     Waiting for input...
     Reading input from standard input
     Message from routine read_cards :
     DEPRECATED: no units specified in CELL_PARAMETERS card

     Current dimensions of program PWSCF are:
     Max number of different atomic species (ntypx) = 10
     Max number of k-points (npk) =  40000
     Max angular momentum in pseudopotentials (lmaxx) =  3

     Subspace diagonalization in iterative solution of the eigenvalue problem:
     a serial algorithm will be used

 
     Parallelization info
     --------------------
     sticks:   dense  smooth     PW     G-vecs:    dense   smooth      PW
     Min         595     238     70                25771     6528    1040
     Max         596     239     71                25774     6549    1043
     Sum        2383     955    283               103091    26171    4169
 


     bravais-lattice index     =            0
     lattice parameter (alat)  =       4.6415  a.u.
     unit-cell volume          =     762.0804 (a.u.)^3
     number of atoms/cell      =            9
     number of atomic types    =            2
     number of electrons       =        48.00
     number of Kohn-Sham states=           24
     kinetic-energy cutoff     =      40.0000  Ry
     charge density cutoff     =     400.0000  Ry
     convergence threshold     =      1.0E-10
     mixing beta               =       0.7000
     number of iterations used =            8  plain     mixing
     Exchange-correlation      =  SLA  PW   PBX  PBC ( 1  4  3  4 0 0)

     celldm(1)=   4.641538  celldm(2)=   0.000000  celldm(3)=   0.000000
     celldm(4)=   0.000000  celldm(5)=   0.000000  celldm(6)=   0.000000

     crystal axes: (cart. coord. in units of alat)
               a(1) = (   1.000000  -1.732058   0.000000 )  
               a(2) = (   1.000000   1.732058   0.000000 )  
               a(3) = (   0.000000   0.000000   2.200000 )  

     reciprocal axes: (cart. coord. in units 2 pi/alat)
               b(1) = (  0.500000 -0.288674  0.000000 )  
               b(2) = (  0.500000  0.288674  0.000000 )  
               b(3) = (  0.000000  0.000000  0.454545 )  


     PseudoPot. # 1 for Si read from file:
     ./pseudo/Si.pbe-tm-gipaw.UPF
     MD5 check sum: 744ed8b2dc623e0d56f5dfff7afbe95f
     Pseudo is Norm-conserving, Zval =  4.0
     Generated by new atomic code, or converted to UPF format
     Using radial grid of 1141 points,  2 beta functions with: 
                l(1) =   0
                l(2) =   1

     PseudoPot. # 2 for O  read from file:
     ./pseudo/O.pbe-rrkjus-gipaw-dc.UPF
     MD5 check sum: 076ad46ec5cb747f63175931fb098378
     Pseudo is Ultrasoft + core correction, Zval =  6.0
     Generated by new atomic code, or converted to UPF format
     Using radial grid of  685 points,  4 beta functions with: 
                l(1) =   0
                l(2) =   0
                l(3) =   1
                l(4) =   1
     Q(r) pseudized with 0 coefficients 


     atomic species   valence    mass     pseudopotential
        Si             4.00    28.08600     Si( 1.00)
        O              6.00    15.99900     O ( 1.00)

      2 Sym. Ops. (no inversion) found


                                    s                        frac. trans.

      isym =  1     identity                                     

 cryst.   s( 1) = (     1          0          0      )
                  (     0          1          0      )
                  (     0          0          1      )

 cart.    s( 1) = (  1.0000000  0.0000000  0.0000000 )
                  (  0.0000000  1.0000000  0.0000000 )
                  (  0.0000000  0.0000000  1.0000000 )


      isym =  2     180 deg rotation - cart. axis [1,0,0]        

 cryst.   s( 2) = (     0          1          0      )
                  (     1          0          0      )
                  (     0          0         -1      )

 cart.    s( 2) = (  1.0000000  0.0000000  0.0000000 )
                  (  0.0000000 -1.0000000  0.0000000 )
                  (  0.0000000  0.0000000 -1.0000000 )


   Cartesian axes

     site n.     atom                  positions (alat units)
         1           Si  tau(   1) = (   0.4701000  -0.8142405   0.7333333  )
         2           Si  tau(   2) = (   0.4701000   0.8142405   1.4666667  )
         3           Si  tau(   3) = (  -0.9402000   0.0000000   0.0000000  )
         4           O   tau(   4) = (   0.6813000  -0.2537465   0.4716800  )
         5           O   tau(   5) = (  -0.1209000   0.7168988   1.2050133  )
         6           O   tau(   6) = (  -0.5604000  -0.4631523   1.9383467  )
         7           O   tau(   7) = (   0.6813000   0.2537465  -0.4716800  )
         8           O   tau(   8) = (  -0.1209000  -0.7168988   0.9949867  )
         9           O   tau(   9) = (  -0.5604000   0.4631523   0.2616533  )

   Crystallographic axes

     site n.     atom                  positions (cryst. coord.)
         1           Si  tau(   1) = (  0.4701000  0.0000000  0.3333333  )
         2           Si  tau(   2) = (  0.0000000  0.4701000  0.6666667  )
         3           Si  tau(   3) = ( -0.4701000 -0.4701000  0.0000000  )
         4           O   tau(   4) = (  0.4139000  0.2674000  0.2144000  )
         5           O   tau(   5) = ( -0.2674000  0.1465000  0.5477333  )
         6           O   tau(   6) = ( -0.1465000 -0.4139000  0.8810667  )
         7           O   tau(   7) = (  0.2674000  0.4139000 -0.2144000  )
         8           O   tau(   8) = (  0.1465000 -0.2674000  0.4522667  )
         9           O   tau(   9) = ( -0.4139000 -0.1465000  0.1189333  )

     number of k points=    20
                       cart. coord. in units 2pi/alat
        k(    1) = (   0.1250000   0.0000000   0.0568182), wk =   0.1250000
        k(    2) = (   0.1250000   0.0000000   0.1704545), wk =   0.1250000
        k(    3) = (   0.2500000   0.0721685   0.0568182), wk =   0.1250000
        k(    4) = (   0.2500000   0.0721685   0.1704545), wk =   0.1250000
        k(    5) = (  -0.1250000  -0.1443370   0.0568182), wk =   0.1250000
        k(    6) = (  -0.1250000  -0.1443370   0.1704545), wk =   0.1250000
        k(    7) = (   0.0000000  -0.0721685   0.0568182), wk =   0.0625000
        k(    8) = (   0.0000000  -0.0721685   0.1704545), wk =   0.0625000
        k(    9) = (   0.3750000   0.0000000   0.0568182), wk =   0.1250000
        k(   10) = (   0.3750000   0.0000000   0.1704545), wk =   0.1250000
        k(   11) = (   0.0000000  -0.2165054   0.0568182), wk =   0.0625000
        k(   12) = (   0.0000000  -0.2165054   0.1704545), wk =   0.0625000
        k(   13) = (  -0.2500000   0.0721685  -0.0568182), wk =   0.1250000
        k(   14) = (  -0.2500000   0.0721685  -0.1704545), wk =   0.1250000
        k(   15) = (   0.1250000  -0.1443370  -0.0568182), wk =   0.1250000
        k(   16) = (   0.1250000  -0.1443370  -0.1704545), wk =   0.1250000
        k(   17) = (   0.0000000  -0.0721685  -0.0568182), wk =   0.0625000
        k(   18) = (   0.0000000  -0.0721685  -0.1704545), wk =   0.0625000
        k(   19) = (   0.0000000  -0.2165054  -0.0568182), wk =   0.0625000
        k(   20) = (   0.0000000  -0.2165054  -0.1704545), wk =   0.0625000

                       cryst. coord.
        k(    1) = (   0.1250000   0.1250000   0.1250000), wk =   0.1250000
        k(    2) = (   0.1250000   0.1250000   0.3750000), wk =   0.1250000
        k(    3) = (   0.1250000   0.3750000   0.1250000), wk =   0.1250000
        k(    4) = (   0.1250000   0.3750000   0.3750000), wk =   0.1250000
        k(    5) = (   0.1250000  -0.3750000   0.1250000), wk =   0.1250000
        k(    6) = (   0.1250000  -0.3750000   0.3750000), wk =   0.1250000
        k(    7) = (   0.1250000  -0.1250000   0.1250000), wk =   0.0625000
        k(    8) = (   0.1250000  -0.1250000   0.3750000), wk =   0.0625000
        k(    9) = (   0.3750000   0.3750000   0.1250000), wk =   0.1250000
        k(   10) = (   0.3750000   0.3750000   0.3750000), wk =   0.1250000
        k(   11) = (   0.3750000  -0.3750000   0.1250000), wk =   0.0625000
        k(   12) = (   0.3750000  -0.3750000   0.3750000), wk =   0.0625000
        k(   13) = (  -0.3750000  -0.1250000  -0.1250000), wk =   0.1250000
        k(   14) = (  -0.3750000  -0.1250000  -0.3750000), wk =   0.1250000
        k(   15) = (   0.3750000  -0.1250000  -0.1250000), wk =   0.1250000
        k(   16) = (   0.3750000  -0.1250000  -0.3750000), wk =   0.1250000
        k(   17) = (   0.1250000  -0.1250000  -0.1250000), wk =   0.0625000
        k(   18) = (   0.1250000  -0.1250000  -0.3750000), wk =   0.0625000
        k(   19) = (   0.3750000  -0.3750000  -0.1250000), wk =   0.0625000
        k(   20) = (   0.3750000  -0.3750000  -0.3750000), wk =   0.0625000

     Dense  grid:   103091 G-vectors     FFT dimensions: (  60,  60,  72)

     Smooth grid:    26171 G-vectors     FFT dimensions: (  40,  40,  45)

     Largest allocated arrays     est. size (Mb)     dimensions
        Kohn-Sham Wavefunctions         0.30 Mb     (     827,   24)
        NL pseudopotentials             0.76 Mb     (     827,   60)
        Each V/rho on FFT grid          0.99 Mb     (   64800)
        Each G-vector array             0.20 Mb     (   25771)
        G-vector shells                 0.08 Mb     (    9860)
     Largest temporary arrays     est. size (Mb)     dimensions
        Auxiliary wavefunctions         1.21 Mb     (     827,   96)
        Each subspace H/S matrix        0.14 Mb     (      96,   96)
        Each <psi_i|beta_j> matrix      0.02 Mb     (      60,   24)
        Arrays for rho mixing           7.91 Mb     (   64800,    8)

     Initial potential from superposition of free atoms

     starting charge   46.41466, renormalised to   48.00000
     Starting wfc are   75 randomized atomic wfcs

     total cpu time spent up to now is        1.0 secs

     per-process dynamical memory:    41.7 Mb

     Self-consistent Calculation

     iteration #  1     ecut=    40.00 Ry     beta=0.70
     Davidson diagonalization with overlap
     ethr =  1.00E-04,  avg # of iterations =  4.0

     total cpu time spent up to now is        2.8 secs

     total energy              =    -216.51065212 Ry
     Harris-Foulkes estimate   =    -217.11511475 Ry
     estimated scf accuracy    <       0.97620573 Ry

     iteration #  2     ecut=    40.00 Ry     beta=0.70
     Davidson diagonalization with overlap
     ethr =  2.03E-03,  avg # of iterations =  2.0

     total cpu time spent up to now is        4.1 secs

     total energy              =    -216.74627722 Ry
     Harris-Foulkes estimate   =    -217.03375988 Ry
     estimated scf accuracy    <       0.56628656 Ry

     iteration #  3     ecut=    40.00 Ry     beta=0.70
     Davidson diagonalization with overlap
     ethr =  1.18E-03,  avg # of iterations =  2.0

     total cpu time spent up to now is        4.9 secs

     total energy              =    -216.86496557 Ry
     Harris-Foulkes estimate   =    -216.86414717 Ry
     estimated scf accuracy    <       0.00605430 Ry

     iteration #  4     ecut=    40.00 Ry     beta=0.70
     Davidson diagonalization with overlap
     ethr =  1.26E-05,  avg # of iterations =  2.0

     total cpu time spent up to now is        6.2 secs

     total energy              =    -216.86603956 Ry
     Harris-Foulkes estimate   =    -216.86614047 Ry
     estimated scf accuracy    <       0.00031758 Ry

     iteration #  5     ecut=    40.00 Ry     beta=0.70
     Davidson diagonalization with overlap
     ethr =  6.62E-07,  avg # of iterations =  2.0

     total cpu time spent up to now is        7.3 secs

     total energy              =    -216.86604184 Ry
     Harris-Foulkes estimate   =    -216.86606438 Ry
     estimated scf accuracy    <       0.00006324 Ry

     iteration #  6     ecut=    40.00 Ry     beta=0.70
     Davidson diagonalization with overlap
     ethr =  1.32E-07,  avg # of iterations =  2.0

     total cpu time spent up to now is        8.7 secs

     total energy              =    -216.86605691 Ry
     Harris-Foulkes estimate   =    -216.86605684 Ry
     estimated scf accuracy    <       0.00000165 Ry

     iteration #  7     ecut=    40.00 Ry     beta=0.70
     Davidson diagonalization with overlap
     ethr =  3.44E-09,  avg # of iterations =  2.0

     total cpu time spent up to now is        9.9 secs

     total energy              =    -216.86605730 Ry
     Harris-Foulkes estimate   =    -216.86605730 Ry
     estimated scf accuracy    <       0.00000003 Ry

     iteration #  8     ecut=    40.00 Ry     beta=0.70
     Davidson diagonalization with overlap
     ethr =  6.69E-11,  avg # of iterations =  2.0

     total cpu time spent up to now is       10.7 secs

     total energy              =    -216.86605731 Ry
     Harris-Foulkes estimate   =    -216.86605731 Ry
     estimated scf accuracy    <          1.2E-09 Ry

     iteration #  9     ecut=    40.00 Ry     beta=0.70
     Davidson diagonalization with overlap
     ethr =  2.50E-12,  avg # of iterations =  2.5

     total cpu time spent up to now is       11.6 secs

     total energy              =    -216.86605731 Ry
     Harris-Foulkes estimate   =    -216.86605731 Ry
     estimated scf accuracy    <          4.8E-10 Ry

     iteration # 10     ecut=    40.00 Ry     beta=0.70
     Davidson diagonalization with overlap
     ethr =  9.95E-13,  avg # of iterations =  2.0

     total cpu time spent up to now is       12.5 secs

     End of self-consistent calculation

          k = 0.1250 0.0000 0.0568 (  3260 PWs)   bands (ev):

   -16.7565 -15.6924 -15.2328 -14.7643 -14.7268 -14.7007  -5.9755  -5.1238
    -3.1527  -2.8769  -2.6858  -2.4584  -0.5741  -0.2534  -0.0464   0.3031
     0.5907   1.0259   1.0694   1.3452   1.6552   1.7654   2.2163   2.4697

     occupation numbers 
     1.0000   1.0000   1.0000   1.0000   1.0000   1.0000   1.0000   1.0000
     1.0000   1.0000   1.0000   1.0000   1.0000   1.0000   1.0000   1.0000
     1.0000   1.0000   1.0000   1.0000   1.0000   1.0000   1.0000   1.0000

          k = 0.1250 0.0000 0.1705 (  3261 PWs)   bands (ev):

   -16.5452 -16.1459 -14.9835 -14.7611 -14.7301 -14.6969  -6.3978  -4.3028
    -3.6061  -2.9069  -2.7700  -2.2484  -0.5315  -0.2106   0.0005   0.2746
     0.5277   0.9533   1.0510   1.2170   1.5108   2.0022   2.2741   2.4427

     occupation numbers 
     1.0000   1.0000   1.0000   1.0000   1.0000   1.0000   1.0000   1.0000
     1.0000   1.0000   1.0000   1.0000   1.0000   1.0000   1.0000   1.0000
     1.0000   1.0000   1.0000   1.0000   1.0000   1.0000   1.0000   1.0000

          k = 0.2500 0.0722 0.0568 (  3257 PWs)   bands (ev):

   -16.4214 -15.9370 -15.3512 -14.7899 -14.7606 -14.7226  -5.8340  -4.7549
    -3.5677  -2.8664  -2.7049  -2.1265  -0.5790  -0.3302  -0.1231   0.3190
     0.5200   0.7992   0.9403   1.3479   1.5633   1.8302   2.2598   2.4902

     occupation numbers 
     1.0000   1.0000   1.0000   1.0000   1.0000   1.0000   1.0000   1.0000
     1.0000   1.0000   1.0000   1.0000   1.0000   1.0000   1.0000   1.0000
     1.0000   1.0000   1.0000   1.0000   1.0000   1.0000   1.0000   1.0000

          k = 0.2500 0.0722 0.1705 (  3248 PWs)   bands (ev):

   -16.3655 -15.9366 -15.4188 -14.8086 -14.7517 -14.7216  -5.7116  -4.7009
    -3.8522  -2.7854  -2.4545  -2.4183  -0.6725  -0.5053   0.0390   0.3702
     0.5879   0.8490   1.2720   1.4047   1.6444   1.8516   2.0220   2.3110

     occupation numbers 
     1.0000   1.0000   1.0000   1.0000   1.0000   1.0000   1.0000   1.0000
     1.0000   1.0000   1.0000   1.0000   1.0000   1.0000   1.0000   1.0000
     1.0000   1.0000   1.0000   1.0000   1.0000   1.0000   1.0000   1.0000

          k =-0.1250-0.1443 0.0568 (  3254 PWs)   bands (ev):

   -16.5980 -15.7787 -15.3243 -14.7790 -14.7430 -14.7149  -5.8749  -4.9629
    -3.3619  -2.8848  -2.6796  -2.2664  -0.5824  -0.2329  -0.0735   0.1861
     0.5112   0.9160   1.1195   1.3265   1.5575   1.8147   2.2067   2.5101

     occupation numbers 
     1.0000   1.0000   1.0000   1.0000   1.0000   1.0000   1.0000   1.0000
     1.0000   1.0000   1.0000   1.0000   1.0000   1.0000   1.0000   1.0000
     1.0000   1.0000   1.0000   1.0000   1.0000   1.0000   1.0000   1.0000

          k =-0.1250-0.1443 0.1705 (  3258 PWs)   bands (ev):

   -16.4439 -16.0516 -15.2122 -14.7839 -14.7384 -14.7153  -6.0500  -4.4842
    -3.7599  -2.8357  -2.5889  -2.3203  -0.6205  -0.4071   0.0790   0.2212
     0.5261   1.0016   1.1626   1.3805   1.6326   1.7814   2.1347   2.4098

     occupation numbers 
     1.0000   1.0000   1.0000   1.0000   1.0000   1.0000   1.0000   1.0000
     1.0000   1.0000   1.0000   1.0000   1.0000   1.0000   1.0000   1.0000
     1.0000   1.0000   1.0000   1.0000   1.0000   1.0000   1.0000   1.0000

          k = 0.0000-0.0722 0.0568 (  3263 PWs)   bands (ev):

   -16.8441 -15.6674 -15.1627 -14.7475 -14.7139 -14.6913  -6.0761  -5.1756
    -3.0346  -2.8842  -2.7344  -2.5213  -0.5236  -0.2568  -0.1007   0.2541
     0.8273   1.0275   1.0805   1.3374   1.6274   1.8651   2.2111   2.4211

     occupation numbers 
     1.0000   1.0000   1.0000   1.0000   1.0000   1.0000   1.0000   1.0000
     1.0000   1.0000   1.0000   1.0000   1.0000   1.0000   1.0000   1.0000
     1.0000   1.0000   1.0000   1.0000   1.0000   1.0000   1.0000   1.0000

          k = 0.0000-0.0722 0.1705 (  3267 PWs)   bands (ev):

   -16.6123 -16.1900 -14.8477 -14.7402 -14.7314 -14.6813  -6.6048  -4.2070
    -3.4690  -2.9875  -2.9078  -2.1968  -0.4272  -0.0843  -0.0631   0.3649
     0.5671   0.8709   0.9289   1.1096   1.4364   2.1284   2.3763   2.4510

     occupation numbers 
     1.0000   1.0000   1.0000   1.0000   1.0000   1.0000   1.0000   1.0000
     1.0000   1.0000   1.0000   1.0000   1.0000   1.0000   1.0000   1.0000
     1.0000   1.0000   1.0000   1.0000   1.0000   1.0000   1.0000   1.0000

          k = 0.3750 0.0000 0.0568 (  3245 PWs)   bands (ev):

   -16.2975 -16.0440 -15.3805 -14.7881 -14.7649 -14.7260  -5.8441  -4.4608
    -3.9180  -2.8380  -2.6672  -2.0531  -0.5137  -0.3364  -0.2503   0.4414
     0.5281   0.6830   0.9890   1.2511   1.4642   2.0154   2.1699   2.5090

     occupation numbers 
     1.0000   1.0000   1.0000   1.0000   1.0000   1.0000   1.0000   1.0000
     1.0000   1.0000   1.0000   1.0000   1.0000   1.0000   1.0000   1.0000
     1.0000   1.0000   1.0000   1.0000   1.0000   1.0000   1.0000   1.0000

          k = 0.3750 0.0000 0.1705 (  3250 PWs)   bands (ev):

   -16.3307 -15.8565 -15.5318 -14.8116 -14.7649 -14.7312  -5.5005  -4.8061
    -3.9798  -2.7409  -2.4643  -2.4043  -0.6958  -0.3791  -0.1396   0.4998
     0.5985   0.7050   1.4123   1.4461   1.6508   1.8879   1.9484   2.2025

     occupation numbers 
     1.0000   1.0000   1.0000   1.0000   1.0000   1.0000   1.0000   1.0000
     1.0000   1.0000   1.0000   1.0000   1.0000   1.0000   1.0000   1.0000
     1.0000   1.0000   1.0000   1.0000   1.0000   1.0000   1.0000   1.0000

          k = 0.0000-0.2165 0.0568 (  3262 PWs)   bands (ev):

   -16.5333 -15.8456 -15.3172 -14.7874 -14.7563 -14.7168  -5.8443  -4.9241
    -3.3549  -2.8643  -2.7579  -2.2202  -0.6390  -0.2630  -0.0251   0.2701
     0.5255   0.8501   0.9234   1.4517   1.6055   1.7075   2.3089   2.4572

     occupation numbers 
     1.0000   1.0000   1.0000   1.0000   1.0000   1.0000   1.0000   1.0000
     1.0000   1.0000   1.0000   1.0000   1.0000   1.0000   1.0000   1.0000
     1.0000   1.0000   1.0000   1.0000   1.0000   1.0000   1.0000   1.0000

          k = 0.0000-0.2165 0.1705 (  3249 PWs)   bands (ev):

   -16.4098 -16.0173 -15.2848 -14.8011 -14.7447 -14.7114  -5.9262  -4.5794
    -3.7561  -2.8273  -2.5070  -2.3943  -0.6599  -0.4783   0.1174   0.2993
     0.5588   0.9614   1.1292   1.3701   1.6169   1.8717   2.1134   2.3522

     occupation numbers 
     1.0000   1.0000   1.0000   1.0000   1.0000   1.0000   1.0000   1.0000
     1.0000   1.0000   1.0000   1.0000   1.0000   1.0000   1.0000   1.0000
     1.0000   1.0000   1.0000   1.0000   1.0000   1.0000   1.0000   1.0000

          k =-0.2500 0.0722-0.0568 (  3257 PWs)   bands (ev):

   -16.4235 -15.9296 -15.3608 -14.7874 -14.7569 -14.7243  -5.8350  -4.7553
    -3.5688  -2.8769  -2.6949  -2.1153  -0.5306  -0.3587  -0.1501   0.2443
     0.5609   0.7757   1.0408   1.3113   1.5299   1.8866   2.2045   2.5143

     occupation numbers 
     1.0000   1.0000   1.0000   1.0000   1.0000   1.0000   1.0000   1.0000
     1.0000   1.0000   1.0000   1.0000   1.0000   1.0000   1.0000   1.0000
     1.0000   1.0000   1.0000   1.0000   1.0000   1.0000   1.0000   1.0000

          k =-0.2500 0.0722-0.1705 (  3248 PWs)   bands (ev):

   -16.3683 -15.9271 -15.4295 -14.8051 -14.7501 -14.7224  -5.7125  -4.7029
    -3.8494  -2.7963  -2.4710  -2.3836  -0.6596  -0.5168   0.0308   0.3639
     0.5348   0.9096   1.2802   1.4634   1.5950   1.8258   1.9843   2.3554

     occupation numbers 
     1.0000   1.0000   1.0000   1.0000   1.0000   1.0000   1.0000   1.0000
     1.0000   1.0000   1.0000   1.0000   1.0000   1.0000   1.0000   1.0000
     1.0000   1.0000   1.0000   1.0000   1.0000   1.0000   1.0000   1.0000

          k = 0.1250-0.1443-0.0568 (  3254 PWs)   bands (ev):

   -16.5968 -15.7883 -15.3093 -14.7818 -14.7503 -14.7117  -5.8734  -4.9627
    -3.3589  -2.8687  -2.6924  -2.2847  -0.6214  -0.2360  -0.0334   0.2730
     0.5014   0.9016   1.0136   1.3731   1.5965   1.7581   2.2673   2.4766

     occupation numbers 
     1.0000   1.0000   1.0000   1.0000   1.0000   1.0000   1.0000   1.0000
     1.0000   1.0000   1.0000   1.0000   1.0000   1.0000   1.0000   1.0000
     1.0000   1.0000   1.0000   1.0000   1.0000   1.0000   1.0000   1.0000

          k = 0.1250-0.1443-0.1705 (  3258 PWs)   bands (ev):

   -16.4408 -16.0592 -15.2006 -14.7887 -14.7440 -14.7124  -6.0487  -4.4815
    -3.7634  -2.8229  -2.5838  -2.3489  -0.6361  -0.3948   0.0730   0.2564
     0.5739   0.9353   1.1498   1.3574   1.6116   1.8573   2.1981   2.3299

     occupation numbers 
     1.0000   1.0000   1.0000   1.0000   1.0000   1.0000   1.0000   1.0000
     1.0000   1.0000   1.0000   1.0000   1.0000   1.0000   1.0000   1.0000
     1.0000   1.0000   1.0000   1.0000   1.0000   1.0000   1.0000   1.0000

          k = 0.0000-0.0722-0.0568 (  3263 PWs)   bands (ev):

   -16.8442 -15.6653 -15.1669 -14.7477 -14.7087 -14.6940  -6.0764  -5.1757
    -3.0387  -2.8808  -2.7453  -2.5073  -0.5040  -0.2791  -0.0943   0.2422
     0.7910   1.0704   1.0909   1.3238   1.6514   1.8423   2.2016   2.4327

     occupation numbers 
     1.0000   1.0000   1.0000   1.0000   1.0000   1.0000   1.0000   1.0000
     1.0000   1.0000   1.0000   1.0000   1.0000   1.0000   1.0000   1.0000
     1.0000   1.0000   1.0000   1.0000   1.0000   1.0000   1.0000   1.0000

          k = 0.0000-0.0722-0.1705 (  3267 PWs)   bands (ev):

   -16.6128 -16.1890 -14.8544 -14.7428 -14.7214 -14.6825  -6.6051  -4.2075
    -3.4690  -2.9796  -2.9183  -2.1903  -0.4232  -0.0767  -0.0637   0.3418
     0.5443   0.8690   0.9878   1.0857   1.4372   2.1288   2.3292   2.4954

     occupation numbers 
     1.0000   1.0000   1.0000   1.0000   1.0000   1.0000   1.0000   1.0000
     1.0000   1.0000   1.0000   1.0000   1.0000   1.0000   1.0000   1.0000
     1.0000   1.0000   1.0000   1.0000   1.0000   1.0000   1.0000   1.0000

          k = 0.0000-0.2165-0.0568 (  3262 PWs)   bands (ev):

   -16.5361 -15.8293 -15.3418 -14.7830 -14.7416 -14.7247  -5.8469  -4.9244
    -3.3585  -2.9086  -2.7148  -2.1938  -0.5719  -0.2511  -0.0988   0.1033
     0.5713   0.8674   1.0663   1.4058   1.5110   1.8362   2.1919   2.5223

     occupation numbers 
     1.0000   1.0000   1.0000   1.0000   1.0000   1.0000   1.0000   1.0000
     1.0000   1.0000   1.0000   1.0000   1.0000   1.0000   1.0000   1.0000
     1.0000   1.0000   1.0000   1.0000   1.0000   1.0000   1.0000   1.0000

          k = 0.0000-0.2165-0.1705 (  3249 PWs)   bands (ev):

   -16.4158 -16.0017 -15.3053 -14.7940 -14.7371 -14.7148  -5.9282  -4.5838
    -3.7500  -2.8515  -2.5201  -2.3388  -0.6272  -0.5087   0.1343   0.2294
     0.4914   1.0494   1.1954   1.4128   1.6053   1.7515   2.0558   2.4456

     occupation numbers 
     1.0000   1.0000   1.0000   1.0000   1.0000   1.0000   1.0000   1.0000
     1.0000   1.0000   1.0000   1.0000   1.0000   1.0000   1.0000   1.0000
     1.0000   1.0000   1.0000   1.0000   1.0000   1.0000   1.0000   1.0000

     highest occupied level (ev):     2.5223

!    total energy              =    -216.86605731 Ry
     Harris-Foulkes estimate   =    -216.86605731 Ry
     estimated scf accuracy    <          1.1E-11 Ry

     The total energy is the sum of the following terms:

     one-electron contribution =    -104.99801757 Ry
     hartree contribution      =      78.02551165 Ry
     xc contribution           =     -50.93158697 Ry
     ewald contribution        =    -138.96196441 Ry

     convergence has been achieved in  10 iterations

     Forces acting on atoms (Ry/au):

     atom    1 type  1   force =     0.00072361   -0.00125433   -0.00000543
     atom    2 type  1   force =     0.00072361    0.00125433    0.00000543
     atom    3 type  1   force =    -0.00145221    0.00000000    0.00000000
     atom    4 type  2   force =    -0.00505699    0.01076938    0.00446907
     atom    5 type  2   force =    -0.00680317   -0.00978852    0.00447483
     atom    6 type  2   force =     0.01186266   -0.00098373    0.00447557
     atom    7 type  2   force =    -0.00505699   -0.01076938   -0.00446907
     atom    8 type  2   force =    -0.00680317    0.00978852   -0.00447483
     atom    9 type  2   force =     0.01186266    0.00098373   -0.00447557
     The non-local contrib.  to forces
     atom    1 type  1   force =    -0.00264726    0.00458581   -0.00000982
     atom    2 type  1   force =    -0.00264726   -0.00458581    0.00000982
     atom    3 type  1   force =     0.00530072    0.00000000    0.00000000
     atom    4 type  2   force =     0.39556079   -0.73552564   -0.47853297
     atom    5 type  2   force =     0.43921365    0.71036046   -0.47853233
     atom    6 type  2   force =    -0.83476321    0.02519615   -0.47852112
     atom    7 type  2   force =     0.39556079    0.73552564    0.47853297
     atom    8 type  2   force =     0.43921365   -0.71036046    0.47853233
     atom    9 type  2   force =    -0.83476321   -0.02519615    0.47852112
     The ionic contribution  to forces
     atom    1 type  1   force =    -0.02624446    0.04549851   -0.00003980
     atom    2 type  1   force =    -0.02624446   -0.04549851    0.00003980
     atom    3 type  1   force =     0.05254218    0.00000000   -0.00000000
     atom    4 type  2   force =    -2.01280941    2.87798355    1.63888123
     atom    5 type  2   force =    -1.48603190   -3.18215155    1.63886102
     atom    6 type  2   force =     3.49881469    0.30413529    1.63885390
     atom    7 type  2   force =    -2.01280941   -2.87798355   -1.63888123
     atom    8 type  2   force =    -1.48603190    3.18215155   -1.63886102
     atom    9 type  2   force =     3.49881469   -0.30413529   -1.63885390
     The local contribution  to forces
     atom    1 type  1   force =     0.02961532   -0.05133902    0.00004403
     atom    2 type  1   force =     0.02961532    0.05133902   -0.00004403
     atom    3 type  1   force =    -0.05929491   -0.00000000   -0.00000000
     atom    4 type  2   force =     1.61219605   -2.13169571   -1.15588474
     atom    5 type  2   force =     1.04001905    2.46201013   -1.15585964
     atom    6 type  2   force =    -2.65219759   -0.33031521   -1.15586315
     atom    7 type  2   force =     1.61219605    2.13169571    1.15588474
     atom    8 type  2   force =     1.04001905   -2.46201013    1.15585964
     atom    9 type  2   force =    -2.65219759    0.33031521    1.15586315
     The core correction contribution to forces
     atom    1 type  1   force =     0.00000000    0.00000000    0.00000000
     atom    2 type  1   force =     0.00000000    0.00000000    0.00000000
     atom    3 type  1   force =     0.00000000    0.00000000    0.00000000
     atom    4 type  2   force =    -0.00000303    0.00000541    0.00000444
     atom    5 type  2   force =    -0.00000317   -0.00000534    0.00000444
     atom    6 type  2   force =     0.00000620   -0.00000008    0.00000444
     atom    7 type  2   force =    -0.00000303   -0.00000541   -0.00000444
     atom    8 type  2   force =    -0.00000317    0.00000534   -0.00000444
     atom    9 type  2   force =     0.00000620    0.00000008   -0.00000444
     The Hubbard contrib.    to forces
     atom    1 type  1   force =     0.00000000    0.00000000    0.00000000
     atom    2 type  1   force =     0.00000000    0.00000000    0.00000000
     atom    3 type  1   force =     0.00000000    0.00000000    0.00000000
     atom    4 type  2   force =     0.00000000    0.00000000    0.00000000
     atom    5 type  2   force =     0.00000000    0.00000000    0.00000000
     atom    6 type  2   force =     0.00000000    0.00000000    0.00000000
     atom    7 type  2   force =     0.00000000    0.00000000    0.00000000
     atom    8 type  2   force =     0.00000000    0.00000000    0.00000000
     atom    9 type  2   force =     0.00000000    0.00000000    0.00000000
     The SCF correction term to forces
     atom    1 type  1   force =    -0.00000005    0.00000037    0.00000016
     atom    2 type  1   force =    -0.00000005   -0.00000037   -0.00000016
     atom    3 type  1   force =    -0.00000026    0.00000000    0.00000000
     atom    4 type  2   force =    -0.00000146    0.00000177    0.00000111
     atom    5 type  2   force =    -0.00000087   -0.00000222    0.00000134
     atom    6 type  2   force =     0.00000250    0.00000011    0.00000149
     atom    7 type  2   force =    -0.00000146   -0.00000177   -0.00000111
     atom    8 type  2   force =    -0.00000087    0.00000222   -0.00000134
     atom    9 type  2   force =     0.00000250   -0.00000011   -0.00000149

     Total force =     0.031258     Total SCF correction =     0.000007


     entering subroutine stress ...

          total   stress  (Ry/bohr**3)                   (kbar)     P=   28.76
   0.00019830   0.00000000   0.00000000         29.17      0.00      0.00
   0.00000000   0.00019750  -0.00000002          0.00     29.05     -0.00
   0.00000000  -0.00000002   0.00019079          0.00     -0.00     28.07

     kinetic stress (kbar)  14907.56      0.00      0.00
                                0.00  14907.54      0.00
                                0.00      0.00  14878.85

     local   stress (kbar) -10954.50     -0.00      0.00
                               -0.00 -10954.53      0.02
                                0.00      0.02 -12193.04

     nonloc. stress (kbar)   3510.56      0.00      0.00
                                0.00   3510.51     -0.00
                                0.00     -0.00   3518.10

     hartree stress (kbar)   4873.93     -0.00      0.00
                               -0.00   4873.92     -0.01
                                0.00     -0.01   5313.49

     exc-cor stress (kbar)  -3088.86      0.00      0.00
                                0.00  -3088.86      0.00
                                0.00      0.00  -3087.87

     corecor stress (kbar)     -5.52     -0.00     -0.00
                               -0.00     -5.52     -0.00
                               -0.00     -0.00     -5.52

     ewald   stress (kbar)  -9213.99      0.00     -0.00
                                0.00  -9214.01     -0.02
                               -0.00     -0.02  -8395.95

     hubbard stress (kbar)      0.00      0.00      0.00
                                0.00      0.00      0.00
                                0.00      0.00      0.00

     london  stress (kbar)      0.00      0.00      0.00
                                0.00      0.00      0.00
                                0.00      0.00      0.00

     XDM     stress (kbar)      0.00      0.00      0.00
                                0.00      0.00      0.00
                                0.00      0.00      0.00

     dft-nl  stress (kbar)      0.00      0.00      0.00
                                0.00      0.00      0.00
                                0.00      0.00      0.00

     TS-vdW  stress (kbar)      0.00      0.00      0.00
                                0.00      0.00      0.00
                                0.00      0.00      0.00



     Writing output data file quartz.save
 
     init_run     :      1.02s CPU      1.02s WALL (       1 calls)
     electrons    :     11.30s CPU     11.41s WALL (       1 calls)
     forces       :      0.31s CPU      0.31s WALL (       1 calls)
     stress       :      0.64s CPU      0.64s WALL (       1 calls)

     Called by init_run:
     wfcinit      :      0.64s CPU      0.64s WALL (       1 calls)
     potinit      :      0.14s CPU      0.15s WALL (       1 calls)

     Called by electrons:
     c_bands      :      8.94s CPU      9.03s WALL (      10 calls)
     sum_band     :      1.71s CPU      1.72s WALL (      10 calls)
     v_of_rho     :      0.41s CPU      0.41s WALL (      11 calls)
     v_h          :      0.03s CPU      0.02s WALL (      11 calls)
     v_xc         :      0.44s CPU      0.45s WALL (      13 calls)
     newd         :      0.20s CPU      0.20s WALL (      11 calls)
     mix_rho      :      0.04s CPU      0.06s WALL (      10 calls)

     Called by c_bands:
     init_us_2    :      0.31s CPU      0.31s WALL (     460 calls)
     cegterg      :      8.44s CPU      8.52s WALL (     200 calls)

     Called by sum_band:
     sum_band:bec :      0.00s CPU      0.00s WALL (     200 calls)
     addusdens    :      0.28s CPU      0.29s WALL (      10 calls)

     Called by *egterg:
     h_psi        :      6.76s CPU      6.82s WALL (     671 calls)
     s_psi        :      0.22s CPU      0.26s WALL (     671 calls)
     g_psi        :      0.07s CPU      0.06s WALL (     451 calls)
     cdiaghg      :      0.61s CPU      0.63s WALL (     651 calls)
     cegterg:over :      0.39s CPU      0.38s WALL (     451 calls)
     cegterg:upda :      0.27s CPU      0.27s WALL (     451 calls)
     cegterg:last :      0.15s CPU      0.14s WALL (     220 calls)

     Called by h_psi:
     h_psi:vloc   :      6.06s CPU      6.12s WALL (     671 calls)
     h_psi:vnl    :      0.66s CPU      0.65s WALL (     671 calls)
     add_vuspsi   :      0.24s CPU      0.28s WALL (     671 calls)

     General routines
     calbec       :      0.52s CPU      0.50s WALL (     971 calls)
     fft          :      0.28s CPU      0.26s WALL (     197 calls)
     ffts         :      0.01s CPU      0.01s WALL (      21 calls)
     fftw         :      5.69s CPU      5.73s WALL (   36470 calls)
     interpolate  :      0.04s CPU      0.04s WALL (      21 calls)
     davcio       :      0.00s CPU      0.00s WALL (      20 calls)
 
     Parallel routines
     fft_scatter  :      1.93s CPU      1.87s WALL (   36688 calls)
 
     PWSCF        :    13.32s CPU        13.46s WALL

 
   This run was terminated on:  14: 6:52  27Jun2016            

=------------------------------------------------------------------------------=
   JOB DONE.
=------------------------------------------------------------------------------=
