
     Program PWSCF v.6.1 (svn rev. 13369) starts on 17Dec2019 at 12: 0:22 

     This program is part of the open-source Quantum ESPRESSO suite
     for quantum simulation of materials; please cite
         "P. Giannozzi et al., J. Phys.:Condens. Matter 21 395502 (2009);
          URL http://www.quantum-espresso.org", 
     in publications or presentations arising from this work. More details at
     http://www.quantum-espresso.org/quote

     Parallel version (MPI), running on     4 processors
     R & G space division:  proc/nbgrp/npool/nimage =       4
     Waiting for input...
     Reading input from standard input

     Current dimensions of program PWSCF are:
     Max number of different atomic species (ntypx) = 10
     Max number of k-points (npk) =  40000
     Max angular momentum in pseudopotentials (lmaxx) =  3

     -------------------------------------
     Parameters for Dispersion Correction:
     -------------------------------------
       atom      VdW radius       C_6     

        C          2.744         60.710
        O          2.536         24.284
        N          2.640         42.670
        H          1.892          4.857

     Subspace diagonalization in iterative solution of the eigenvalue problem:
     a serial algorithm will be used

 
     Parallelization info
     --------------------
     sticks:   dense  smooth     PW     G-vecs:    dense   smooth      PW
     Min         822     822    220                29358    29358    4119
     Max         823     823    222                29361    29361    4120
     Sum        3289    3289    885               117437   117437   16479
 


     bravais-lattice index     =            0
     lattice parameter (alat)  =      10.6977  a.u.
     unit-cell volume          =    1019.0328 (a.u.)^3
     number of atoms/cell      =           16
     number of atomic types    =            4
     number of electrons       =        44.00
     number of Kohn-Sham states=           22
     kinetic-energy cutoff     =      90.0000  Ry
     charge density cutoff     =     360.0000  Ry
     convergence threshold     =      1.0E-08
     mixing beta               =       0.2000
     number of iterations used =            8  plain     mixing
     Exchange-correlation      =  SLA  PW   PBX  PBC ( 1  4  3  4 0 0)
     nstep                     =           50


     celldm(1)=  10.697739  celldm(2)=   0.000000  celldm(3)=   0.000000
     celldm(4)=   0.000000  celldm(5)=   0.000000  celldm(6)=   0.000000

     crystal axes: (cart. coord. in units of alat)
               a(1) = (   1.000000   0.000000   0.000000 )  
               a(2) = (   0.000000   1.000000   0.000000 )  
               a(3) = (   0.000000   0.000000   0.832362 )  

     reciprocal axes: (cart. coord. in units 2 pi/alat)
               b(1) = (  1.000000  0.000000  0.000000 )  
               b(2) = (  0.000000  1.000000  0.000000 )  
               b(3) = (  0.000000  0.000000  1.201401 )  


     PseudoPot. # 1 for C  read from file:
     ./pseudo/C.pbe-tm-gipaw.UPF
     MD5 check sum: 6e4a9b9bc4429ee737bc22471ffa2923
     Pseudo is Norm-conserving, Zval =  4.0
     Generated by new atomic code, or converted to UPF format
     Using radial grid of 1073 points,  1 beta functions with: 
                l(1) =   0

     PseudoPot. # 2 for C  read from file:
     ./pseudo/C.pbe-tm-gipaw.UPF
     MD5 check sum: 6e4a9b9bc4429ee737bc22471ffa2923
     Pseudo is Norm-conserving, Zval =  4.0
     Generated by new atomic code, or converted to UPF format
     Using radial grid of 1073 points,  1 beta functions with: 
                l(1) =   0

     PseudoPot. # 3 for N  read from file:
     ./pseudo/N.pbe-tm-gipaw.UPF
     MD5 check sum: df8943e789315a92e2ce8ab49e62f5cb
     Pseudo is Norm-conserving, Zval =  5.0
     Generated by new atomic code, or converted to UPF format
     Using radial grid of 1085 points,  1 beta functions with: 
                l(1) =   0

     PseudoPot. # 4 for H  read from file:
     ./pseudo/H.pbe-tm-gipaw.UPF
     MD5 check sum: 39a9a69d8410949353303b9fcad9eee2
     Pseudo is Norm-conserving, Zval =  1.0
     Generated by new atomic code, or converted to UPF format
     Using radial grid of  929 points,  0 beta functions with: 

     atomic species   valence    mass     pseudopotential
        C              4.00    12.00000     C ( 1.00)
        O              4.00    15.99900     C ( 1.00)
        N              5.00    14.00700     N ( 1.00)
        H              1.00     2.00000     H ( 1.00)

      8 Sym. Ops. (no inversion) found ( 4 have fractional translation)



   Cartesian axes

     site n.     atom                  positions (alat units)
         1           C   tau(   1) = (   0.0000000   0.5000000   0.2771765  )
         2           C   tau(   2) = (   0.5000000   0.0000000   0.5551853  )
         3           O   tau(   3) = (   0.0000000   0.5000000   0.4967535  )
         4           O   tau(   4) = (   0.5000000   0.0000000   0.3356083  )
         5           N   tau(   5) = (   0.1439000   0.6439000   0.1524887  )
         6           N   tau(   6) = (   0.8561000   0.3561000   0.1524887  )
         7           N   tau(   7) = (   0.6439000   0.8561000   0.6798731  )
         8           N   tau(   8) = (   0.3561000   0.1439000   0.6798731  )
         9           H   tau(   9) = (   0.2522000   0.7522000   0.2363075  )
        10           H   tau(  10) = (   0.7478000   0.2478000   0.2363075  )
        11           H   tau(  11) = (   0.7522000   0.7478000   0.5960543  )
        12           H   tau(  12) = (   0.2478000   0.2522000   0.5960543  )
        13           H   tau(  13) = (   0.1365000   0.6365000   0.8093886  )
        14           H   tau(  14) = (   0.8635000   0.3635000   0.8093886  )
        15           H   tau(  15) = (   0.6365000   0.8635000   0.0229732  )
        16           H   tau(  16) = (   0.3635000   0.1365000   0.0229732  )

     number of k points=     6
                       cart. coord. in units 2pi/alat
        k(    1) = (   0.0000000   0.0000000   0.0000000), wk =   0.0740741
        k(    2) = (   0.0000000   0.0000000   0.4004669), wk =   0.1481481
        k(    3) = (   0.0000000   0.3333333   0.0000000), wk =   0.2962963
        k(    4) = (   0.0000000   0.3333333   0.4004669), wk =   0.5925926
        k(    5) = (   0.3333333   0.3333333   0.0000000), wk =   0.2962963
        k(    6) = (   0.3333333   0.3333333   0.4004669), wk =   0.5925926

     Dense  grid:   117437 G-vectors     FFT dimensions: (  72,  72,  54)

     Estimated max dynamical RAM per process >      32.34MB

     Estimated total allocated dynamical RAM >     129.35MB

     Initial potential from superposition of free atoms

     starting charge   36.79980, renormalised to   44.00000
     Starting wfc are   40 randomized atomic wfcs

     total cpu time spent up to now is        1.1 secs

     per-process dynamical memory:    47.5 Mb

     Self-consistent Calculation

     iteration #  1     ecut=    90.00 Ry     beta=0.20
     Davidson diagonalization with overlap
     ethr =  1.00E-04,  avg # of iterations =  7.0

     total cpu time spent up to now is        2.6 secs

     total energy              =    -134.38316134 Ry
     Harris-Foulkes estimate   =    -136.58248405 Ry
     estimated scf accuracy    <       7.96624261 Ry

     iteration #  2     ecut=    90.00 Ry     beta=0.20
     Davidson diagonalization with overlap
     ethr =  1.00E-02,  avg # of iterations =  2.0

     total cpu time spent up to now is        3.3 secs

     total energy              =    -133.47012119 Ry
     Harris-Foulkes estimate   =    -134.72185929 Ry
     estimated scf accuracy    <       2.56853689 Ry

     iteration #  3     ecut=    90.00 Ry     beta=0.20
     Davidson diagonalization with overlap
     ethr =  5.84E-03,  avg # of iterations =  3.0

     total cpu time spent up to now is        4.1 secs

     total energy              =    -133.85006310 Ry
     Harris-Foulkes estimate   =    -133.92508280 Ry
     estimated scf accuracy    <       0.23312696 Ry

     iteration #  4     ecut=    90.00 Ry     beta=0.20
     Davidson diagonalization with overlap
     ethr =  5.30E-04,  avg # of iterations =  1.5

     total cpu time spent up to now is        4.8 secs

     total energy              =    -133.84324144 Ry
     Harris-Foulkes estimate   =    -133.86363900 Ry
     estimated scf accuracy    <       0.05145278 Ry

     iteration #  5     ecut=    90.00 Ry     beta=0.20
     Davidson diagonalization with overlap
     ethr =  1.17E-04,  avg # of iterations =  4.3

     total cpu time spent up to now is        5.6 secs

     total energy              =    -133.85728905 Ry
     Harris-Foulkes estimate   =    -133.85813020 Ry
     estimated scf accuracy    <       0.00896119 Ry

     iteration #  6     ecut=    90.00 Ry     beta=0.20
     Davidson diagonalization with overlap
     ethr =  2.04E-05,  avg # of iterations =  3.0

     total cpu time spent up to now is        6.3 secs

     total energy              =    -133.85703851 Ry
     Harris-Foulkes estimate   =    -133.85773307 Ry
     estimated scf accuracy    <       0.00782172 Ry

     iteration #  7     ecut=    90.00 Ry     beta=0.20
     Davidson diagonalization with overlap
     ethr =  1.78E-05,  avg # of iterations =  1.3

     total cpu time spent up to now is        7.0 secs

     total energy              =    -133.85514972 Ry
     Harris-Foulkes estimate   =    -133.85723960 Ry
     estimated scf accuracy    <       0.00542470 Ry

     iteration #  8     ecut=    90.00 Ry     beta=0.20
     Davidson diagonalization with overlap
     ethr =  1.23E-05,  avg # of iterations =  5.3

     total cpu time spent up to now is        7.9 secs

     total energy              =    -133.85526317 Ry
     Harris-Foulkes estimate   =    -133.85790891 Ry
     estimated scf accuracy    <       0.01458564 Ry

     iteration #  9     ecut=    90.00 Ry     beta=0.20
     Davidson diagonalization with overlap
     ethr =  1.23E-05,  avg # of iterations =  4.5

     total cpu time spent up to now is        8.7 secs

     total energy              =    -133.85589330 Ry
     Harris-Foulkes estimate   =    -133.85629606 Ry
     estimated scf accuracy    <       0.00120960 Ry

     iteration # 10     ecut=    90.00 Ry     beta=0.20
     Davidson diagonalization with overlap
     ethr =  2.75E-06,  avg # of iterations =  5.2

     total cpu time spent up to now is        9.6 secs

     total energy              =    -133.85587073 Ry
     Harris-Foulkes estimate   =    -133.85628503 Ry
     estimated scf accuracy    <       0.00157086 Ry

     iteration # 11     ecut=    90.00 Ry     beta=0.20
     Davidson diagonalization with overlap
     ethr =  2.75E-06,  avg # of iterations =  4.2

     total cpu time spent up to now is       10.4 secs

     total energy              =    -133.85600268 Ry
     Harris-Foulkes estimate   =    -133.85604834 Ry
     estimated scf accuracy    <       0.00015079 Ry

     iteration # 12     ecut=    90.00 Ry     beta=0.20
     Davidson diagonalization with overlap
     ethr =  3.43E-07,  avg # of iterations =  2.8

     total cpu time spent up to now is       11.2 secs

     total energy              =    -133.85602130 Ry
     Harris-Foulkes estimate   =    -133.85602882 Ry
     estimated scf accuracy    <       0.00001349 Ry

     iteration # 13     ecut=    90.00 Ry     beta=0.20
     Davidson diagonalization with overlap
     ethr =  3.07E-08,  avg # of iterations =  4.8

     total cpu time spent up to now is       12.2 secs

     total energy              =    -133.85602999 Ry
     Harris-Foulkes estimate   =    -133.85602974 Ry
     estimated scf accuracy    <       0.00000778 Ry

     iteration # 14     ecut=    90.00 Ry     beta=0.20
     Davidson diagonalization with overlap
     ethr =  1.77E-08,  avg # of iterations =  5.0

     total cpu time spent up to now is       13.2 secs

     total energy              =    -133.85602203 Ry
     Harris-Foulkes estimate   =    -133.85603626 Ry
     estimated scf accuracy    <       0.00005506 Ry

     iteration # 15     ecut=    90.00 Ry     beta=0.20
     Davidson diagonalization with overlap
     ethr =  1.77E-08,  avg # of iterations =  6.0

     total cpu time spent up to now is       14.2 secs

     total energy              =    -133.85602830 Ry
     Harris-Foulkes estimate   =    -133.85602838 Ry
     estimated scf accuracy    <       0.00000050 Ry

     iteration # 16     ecut=    90.00 Ry     beta=0.20
     Davidson diagonalization with overlap
     ethr =  1.14E-09,  avg # of iterations =  2.2

     total cpu time spent up to now is       14.9 secs

     total energy              =    -133.85602829 Ry
     Harris-Foulkes estimate   =    -133.85602834 Ry
     estimated scf accuracy    <       0.00000027 Ry

     iteration # 17     ecut=    90.00 Ry     beta=0.20
     Davidson diagonalization with overlap
     ethr =  6.03E-10,  avg # of iterations =  4.5

     total cpu time spent up to now is       15.7 secs

     total energy              =    -133.85602834 Ry
     Harris-Foulkes estimate   =    -133.85602836 Ry
     estimated scf accuracy    <       0.00000008 Ry

     iteration # 18     ecut=    90.00 Ry     beta=0.20
     Davidson diagonalization with overlap
     ethr =  1.78E-10,  avg # of iterations =  3.7

     total cpu time spent up to now is       16.4 secs

     total energy              =    -133.85602835 Ry
     Harris-Foulkes estimate   =    -133.85602835 Ry
     estimated scf accuracy    <       0.00000001 Ry

     iteration # 19     ecut=    90.00 Ry     beta=0.20
     Davidson diagonalization with overlap
     ethr =  2.69E-11,  avg # of iterations =  5.3

     total cpu time spent up to now is       17.2 secs

     End of self-consistent calculation

          k = 0.0000 0.0000 0.0000 ( 14623 PWs)   bands (ev):

   -18.4756 -18.2270 -15.7740 -15.7740 -12.3495 -12.2668  -8.9506  -8.6498
    -7.3432  -7.3432  -7.0315  -6.5216  -5.9878  -5.9878  -4.0304  -4.0304
    -1.0035  -0.9095  -0.4464   0.0502   1.0703   1.0703

          k = 0.0000 0.0000 0.4005 ( 14687 PWs)   bands (ev):

   -18.3791 -18.2515 -15.7536 -15.7536 -12.7116 -12.4076  -9.0276  -8.5032
    -7.5376  -7.5376  -6.3601  -6.0389  -5.9354  -5.9354  -4.0264  -4.0264
    -1.4149  -1.0675  -0.7479  -0.0931   1.0397   1.0397

          k = 0.0000 0.3333 0.0000 ( 14674 PWs)   bands (ev):

   -18.4140 -18.2896 -15.7771 -15.7767 -12.3196 -12.2787  -8.8753  -8.7182
    -7.3600  -7.3527  -7.0898  -6.8798  -5.7237  -5.6656  -4.1580  -4.1435
    -0.8182  -0.6149  -0.5380  -0.1339   1.1477   1.1494

          k = 0.0000 0.3333 0.4005 ( 14700 PWs)   bands (ev):

   -18.3443 -18.2804 -15.7632 -15.7626 -12.6246 -12.4720  -8.9313  -8.6704
    -7.5394  -7.5390  -6.3831  -6.2862  -5.7766  -5.6999  -4.1090  -4.0899
    -1.2409  -1.0685  -0.5126  -0.1748   0.9557   0.9692

          k = 0.3333 0.3333 0.0000 ( 14745 PWs)   bands (ev):

   -18.3800 -18.3176 -15.7849 -15.7824 -12.3076 -12.2869  -8.8544  -8.7752
    -7.3601  -7.3541  -6.9830  -6.7305  -5.9913  -5.6923  -4.1935  -4.1188
    -0.7688  -0.6249  -0.3853  -0.1283   1.1233   1.2678

          k = 0.3333 0.3333 0.4005 ( 14669 PWs)   bands (ev):

   -18.3256 -18.2935 -15.7681 -15.7640 -12.5982 -12.5204  -8.8416  -8.7044
    -7.5566  -7.5490  -6.3263  -6.1945  -5.9488  -5.7389  -4.1214  -4.0759
    -1.2447  -1.1382  -0.3246  -0.1432   0.9095   1.0084

     highest occupied level (ev):     1.2678

!    total energy              =    -133.85602835 Ry
     Harris-Foulkes estimate   =    -133.85602835 Ry
     estimated scf accuracy    <          3.3E-09 Ry

     The total energy is the sum of the following terms:

     one-electron contribution =     -98.04579644 Ry
     hartree contribution      =      63.45227688 Ry
     xc contribution           =     -40.22128073 Ry
     ewald contribution        =     -58.98105882 Ry
     Dispersion Correction     =      -0.06016925 Ry

     convergence has been achieved in  19 iterations

     Forces acting on atoms (cartesian axes, Ry/au):

     atom    1 type  1   force =     0.00000000    0.00000000   -0.26415102
     atom    2 type  1   force =     0.00000000    0.00000000    0.26415102
     atom    3 type  2   force =     0.00000000    0.00000000    0.33663916
     atom    4 type  2   force =     0.00000000    0.00000000   -0.33663916
     atom    5 type  3   force =    -0.00007370   -0.00007370   -0.00088325
     atom    6 type  3   force =     0.00007370    0.00007370   -0.00088325
     atom    7 type  3   force =    -0.00007370    0.00007370    0.00088325
     atom    8 type  3   force =     0.00007370   -0.00007370    0.00088325
     atom    9 type  4   force =     0.04752882    0.04752882    0.02427468
     atom   10 type  4   force =    -0.04752882   -0.04752882    0.02427468
     atom   11 type  4   force =     0.04752882   -0.04752882   -0.02427468
     atom   12 type  4   force =    -0.04752882    0.04752882   -0.02427468
     atom   13 type  4   force =    -0.00228496   -0.00228496   -0.06954791
     atom   14 type  4   force =     0.00228496    0.00228496   -0.06954791
     atom   15 type  4   force =    -0.00228496    0.00228496    0.06954791
     atom   16 type  4   force =     0.00228496   -0.00228496    0.06954791

     Total force =     0.637201     Total SCF correction =     0.000076

     BFGS Geometry Optimization

     number of scf cycles    =   1
     number of bfgs steps    =   0

     energy   new            =    -133.8560283509 Ry

     new trust radius        =       0.3366391561 bohr
     new conv_thr            =       0.0000000100 Ry


ATOMIC_POSITIONS (crystal)
C        0.000000000   0.500000000   0.303334742
C        0.500000000   0.000000000   0.696665233
O        0.000000000   0.500000000   0.634605999
O        0.500000000   0.000000000   0.365394001
N        0.143893122   0.643893070   0.183100811
N        0.856106846   0.356106930   0.183100811
N        0.643893070   0.856106846   0.816899202
N        0.356106930   0.143893122   0.816899202
H        0.256642897   0.756642876   0.286626138
H        0.743357082   0.243357103   0.286626138
H        0.756642876   0.743357082   0.713373837
H        0.243357103   0.256642897   0.713373837
H        0.136286408   0.636286419   0.964589493
H        0.863713581   0.363713581   0.964589493
H        0.636286419   0.863713581   0.035410510
H        0.363713581   0.136286408   0.035410510



     Writing output data file urea.save
     NEW-OLD atomic charge density approx. for the potential

     total cpu time spent up to now is       18.1 secs

     per-process dynamical memory:    63.2 Mb

     Self-consistent Calculation

     iteration #  1     ecut=    90.00 Ry     beta=0.20
     Davidson diagonalization with overlap
     ethr =  1.00E-06,  avg # of iterations = 15.3

     total cpu time spent up to now is       20.5 secs

     total energy              =    -133.88815795 Ry
     Harris-Foulkes estimate   =    -133.91928164 Ry
     estimated scf accuracy    <       0.15300215 Ry

     iteration #  2     ecut=    90.00 Ry     beta=0.20
     Davidson diagonalization with overlap
     ethr =  3.48E-04,  avg # of iterations =  1.0

     total cpu time spent up to now is       21.1 secs

     total energy              =    -133.85971463 Ry
     Harris-Foulkes estimate   =    -133.89071456 Ry
     estimated scf accuracy    <       0.07446884 Ry

     iteration #  3     ecut=    90.00 Ry     beta=0.20
     Davidson diagonalization with overlap
     ethr =  1.69E-04,  avg # of iterations =  2.0

     total cpu time spent up to now is       21.9 secs

     total energy              =    -133.86927697 Ry
     Harris-Foulkes estimate   =    -133.87150901 Ry
     estimated scf accuracy    <       0.00729507 Ry

     iteration #  4     ecut=    90.00 Ry     beta=0.20
     Davidson diagonalization with overlap
     ethr =  1.66E-05,  avg # of iterations =  2.8

     total cpu time spent up to now is       22.7 secs

     total energy              =    -133.87092532 Ry
     Harris-Foulkes estimate   =    -133.87127648 Ry
     estimated scf accuracy    <       0.00198793 Ry

     iteration #  5     ecut=    90.00 Ry     beta=0.20
     Davidson diagonalization with overlap
     ethr =  4.52E-06,  avg # of iterations =  5.3

     total cpu time spent up to now is       23.5 secs

     total energy              =    -133.87126864 Ry
     Harris-Foulkes estimate   =    -133.87124517 Ry
     estimated scf accuracy    <       0.00021131 Ry

     iteration #  6     ecut=    90.00 Ry     beta=0.20
     Davidson diagonalization with overlap
     ethr =  4.80E-07,  avg # of iterations =  4.2

     total cpu time spent up to now is       24.3 secs

     total energy              =    -133.87133202 Ry
     Harris-Foulkes estimate   =    -133.87130143 Ry
     estimated scf accuracy    <       0.00007856 Ry

     iteration #  7     ecut=    90.00 Ry     beta=0.20
     Davidson diagonalization with overlap
     ethr =  1.79E-07,  avg # of iterations =  2.0

     total cpu time spent up to now is       24.9 secs

     total energy              =    -133.87133902 Ry
     Harris-Foulkes estimate   =    -133.87133789 Ry
     estimated scf accuracy    <       0.00000555 Ry

     iteration #  8     ecut=    90.00 Ry     beta=0.20
     Davidson diagonalization with overlap
     ethr =  1.26E-08,  avg # of iterations =  3.5

     total cpu time spent up to now is       25.7 secs

     total energy              =    -133.87133939 Ry
     Harris-Foulkes estimate   =    -133.87133970 Ry
     estimated scf accuracy    <       0.00000187 Ry

     iteration #  9     ecut=    90.00 Ry     beta=0.20
     Davidson diagonalization with overlap
     ethr =  4.25E-09,  avg # of iterations =  3.5

     total cpu time spent up to now is       26.6 secs

     total energy              =    -133.87133974 Ry
     Harris-Foulkes estimate   =    -133.87133995 Ry
     estimated scf accuracy    <       0.00000067 Ry

     iteration # 10     ecut=    90.00 Ry     beta=0.20
     Davidson diagonalization with overlap
     ethr =  1.52E-09,  avg # of iterations =  2.7

     total cpu time spent up to now is       27.3 secs

     total energy              =    -133.87133977 Ry
     Harris-Foulkes estimate   =    -133.87133982 Ry
     estimated scf accuracy    <       0.00000017 Ry

     iteration # 11     ecut=    90.00 Ry     beta=0.20
     Davidson diagonalization with overlap
     ethr =  3.83E-10,  avg # of iterations =  4.3

     total cpu time spent up to now is       28.2 secs

     total energy              =    -133.87133980 Ry
     Harris-Foulkes estimate   =    -133.87133981 Ry
     estimated scf accuracy    <       0.00000001 Ry

     iteration # 12     ecut=    90.00 Ry     beta=0.20
     Davidson diagonalization with overlap
     ethr =  2.65E-11,  avg # of iterations =  3.0

     total cpu time spent up to now is       29.0 secs

     End of self-consistent calculation

          k = 0.0000 0.0000 0.0000 ( 14623 PWs)   bands (ev):

   -18.6349 -18.4132 -16.0303 -16.0303 -10.3156 -10.0964  -9.1205  -8.5260
    -7.2362  -7.2362  -7.0100  -6.3861  -6.1933  -6.1933  -4.0527  -4.0527
    -1.0608  -0.1594  -0.1376   0.3788   1.3161   1.3161

          k = 0.0000 0.0000 0.4005 ( 14687 PWs)   bands (ev):

   -18.5546 -18.4299 -16.0130 -16.0130 -10.9537 -10.5612  -9.1949  -8.4199
    -7.3411  -7.3411  -6.2588  -6.2588  -5.6551  -5.0619  -4.0377  -4.0377
    -1.2521  -0.9116  -0.9113  -0.2678   1.6191   1.6191

          k = 0.0000 0.3333 0.0000 ( 14674 PWs)   bands (ev):

   -18.5793 -18.4683 -16.0337 -16.0333 -10.2340 -10.1243  -8.9685  -8.6510
    -7.4896  -7.3836  -6.9739  -6.8351  -5.7846  -5.6916  -4.1337  -4.1309
    -0.7696  -0.3079  -0.0798   0.2071   1.3653   1.3721

          k = 0.0000 0.3333 0.4005 ( 14700 PWs)   bands (ev):

   -18.5209 -18.4584 -16.0202 -16.0198 -10.8276 -10.6195  -9.1079  -8.7210
    -7.3337  -7.3293  -6.2854  -6.2693  -5.3753  -5.0899  -4.0961  -4.0789
    -1.1244  -0.9448  -0.6743  -0.3465   1.4623   1.4800

          k = 0.3333 0.3333 0.0000 ( 14745 PWs)   bands (ev):

   -18.5488 -18.4932 -16.0399 -16.0383 -10.2163 -10.1583  -8.9093  -8.7614
    -7.4281  -7.2552  -6.9189  -6.6475  -6.1990  -5.7360  -4.1722  -4.1369
    -0.5512  -0.3099   0.0109   0.1726   1.3436   1.4058

          k = 0.3333 0.3333 0.4005 ( 14669 PWs)   bands (ev):

   -18.5027 -18.4713 -16.0246 -16.0222 -10.8201 -10.7054  -8.9486  -8.7188
    -7.3616  -7.3417  -6.2862  -6.2810  -5.3858  -5.1904  -4.1085  -4.0879
    -1.0990  -1.0073  -0.4940  -0.3233   1.4375   1.5956

     highest occupied level (ev):     1.6191

!    total energy              =    -133.87133981 Ry
     Harris-Foulkes estimate   =    -133.87133981 Ry
     estimated scf accuracy    <          6.8E-09 Ry

     The total energy is the sum of the following terms:

     one-electron contribution =     -92.98093699 Ry
     hartree contribution      =      60.95643941 Ry
     xc contribution           =     -39.70370098 Ry
     ewald contribution        =     -62.08265464 Ry
     Dispersion Correction     =      -0.06048660 Ry

     convergence has been achieved in  12 iterations

     Forces acting on atoms (cartesian axes, Ry/au):

     atom    1 type  1   force =     0.00000000    0.00000000    0.31372915
     atom    2 type  1   force =     0.00000000    0.00000000   -0.31372915
     atom    3 type  2   force =     0.00000000    0.00000000   -0.11363060
     atom    4 type  2   force =     0.00000000    0.00000000    0.11363060
     atom    5 type  3   force =     0.05083183    0.05083183   -0.08799714
     atom    6 type  3   force =    -0.05083183   -0.05083183   -0.08799714
     atom    7 type  3   force =     0.05083183   -0.05083183    0.08799714
     atom    8 type  3   force =    -0.05083183    0.05083183    0.08799714
     atom    9 type  4   force =     0.01787850    0.01787850    0.01172946
     atom   10 type  4   force =    -0.01787850   -0.01787850    0.01172946
     atom   11 type  4   force =     0.01787850   -0.01787850   -0.01172946
     atom   12 type  4   force =    -0.01787850    0.01787850   -0.01172946
     atom   13 type  4   force =     0.01236333    0.01236333   -0.03491737
     atom   14 type  4   force =    -0.01236333   -0.01236333   -0.03491737
     atom   15 type  4   force =     0.01236333   -0.01236333    0.03491737
     atom   16 type  4   force =    -0.01236333    0.01236333    0.03491737

     Total force =     0.532473     Total SCF correction =     0.000150

     number of scf cycles    =   2
     number of bfgs steps    =   1

     energy   old            =    -133.8560283509 Ry
     energy   new            =    -133.8713398063 Ry

     CASE: energy  _new < energy  _old

     new trust radius        =       0.1590288273 bohr
     new conv_thr            =       0.0000000100 Ry


ATOMIC_POSITIONS (crystal)
C        0.000000000   0.500000000   0.321194341
C        0.500000000   0.000000000   0.678805634
O        0.000000000   0.500000000   0.632540779
O        0.500000000   0.000000000   0.367459221
N        0.146951599   0.646951547   0.176721331
N        0.853048369   0.353048453   0.176721331
N        0.646951547   0.853048369   0.823278682
N        0.353048453   0.146951599   0.823278682
H        0.258441956   0.758441935   0.287917928
H        0.741558023   0.241558044   0.287917928
H        0.758441935   0.741558023   0.712082047
H        0.241558044   0.258441956   0.712082047
H        0.136995809   0.636995820   0.960793592
H        0.863004180   0.363004180   0.960793592
H        0.636995820   0.863004180   0.039206411
H        0.363004180   0.136995809   0.039206411



     Writing output data file urea.save
     NEW-OLD atomic charge density approx. for the potential

     total cpu time spent up to now is       29.8 secs

     per-process dynamical memory:    67.9 Mb

     Self-consistent Calculation

     iteration #  1     ecut=    90.00 Ry     beta=0.20
     Davidson diagonalization with overlap
     ethr =  1.00E-06,  avg # of iterations = 12.0

     total cpu time spent up to now is       32.1 secs

     total energy              =    -133.95642664 Ry
     Harris-Foulkes estimate   =    -133.96692241 Ry
     estimated scf accuracy    <       0.03978057 Ry

     iteration #  2     ecut=    90.00 Ry     beta=0.20
     Davidson diagonalization with overlap
     ethr =  9.04E-05,  avg # of iterations =  1.0

     total cpu time spent up to now is       32.7 secs

     total energy              =    -133.95264654 Ry
     Harris-Foulkes estimate   =    -133.95805641 Ry
     estimated scf accuracy    <       0.01323213 Ry

     iteration #  3     ecut=    90.00 Ry     beta=0.20
     Davidson diagonalization with overlap
     ethr =  3.01E-05,  avg # of iterations =  3.5

     total cpu time spent up to now is       33.6 secs

     total energy              =    -133.95552757 Ry
     Harris-Foulkes estimate   =    -133.95590264 Ry
     estimated scf accuracy    <       0.00363880 Ry

     iteration #  4     ecut=    90.00 Ry     beta=0.20
     Davidson diagonalization with overlap
     ethr =  8.27E-06,  avg # of iterations =  1.2

     total cpu time spent up to now is       34.2 secs

     total energy              =    -133.95450392 Ry
     Harris-Foulkes estimate   =    -133.95559439 Ry
     estimated scf accuracy    <       0.00257544 Ry

     iteration #  5     ecut=    90.00 Ry     beta=0.20
     Davidson diagonalization with overlap
     ethr =  5.85E-06,  avg # of iterations =  4.2

     total cpu time spent up to now is       35.1 secs

     total energy              =    -133.95480478 Ry
     Harris-Foulkes estimate   =    -133.95583213 Ry
     estimated scf accuracy    <       0.00217573 Ry

     iteration #  6     ecut=    90.00 Ry     beta=0.20
     Davidson diagonalization with overlap
     ethr =  4.94E-06,  avg # of iterations =  3.7

     total cpu time spent up to now is       35.9 secs

     total energy              =    -133.95528790 Ry
     Harris-Foulkes estimate   =    -133.95529066 Ry
     estimated scf accuracy    <       0.00009451 Ry

     iteration #  7     ecut=    90.00 Ry     beta=0.20
     Davidson diagonalization with overlap
     ethr =  2.15E-07,  avg # of iterations =  3.2

     total cpu time spent up to now is       36.8 secs

     total energy              =    -133.95531323 Ry
     Harris-Foulkes estimate   =    -133.95531367 Ry
     estimated scf accuracy    <       0.00001038 Ry

     iteration #  8     ecut=    90.00 Ry     beta=0.20
     Davidson diagonalization with overlap
     ethr =  2.36E-08,  avg # of iterations =  5.0

     total cpu time spent up to now is       37.6 secs

     total energy              =    -133.95531324 Ry
     Harris-Foulkes estimate   =    -133.95531424 Ry
     estimated scf accuracy    <       0.00000579 Ry

     iteration #  9     ecut=    90.00 Ry     beta=0.20
     Davidson diagonalization with overlap
     ethr =  1.32E-08,  avg # of iterations =  4.0

     total cpu time spent up to now is       38.5 secs

     total energy              =    -133.95531613 Ry
     Harris-Foulkes estimate   =    -133.95531734 Ry
     estimated scf accuracy    <       0.00000845 Ry

     iteration # 10     ecut=    90.00 Ry     beta=0.20
     Davidson diagonalization with overlap
     ethr =  1.32E-08,  avg # of iterations =  1.0

     total cpu time spent up to now is       39.2 secs

     total energy              =    -133.95531302 Ry
     Harris-Foulkes estimate   =    -133.95531625 Ry
     estimated scf accuracy    <       0.00000533 Ry

     iteration # 11     ecut=    90.00 Ry     beta=0.20
     Davidson diagonalization with overlap
     ethr =  1.21E-08,  avg # of iterations =  4.2

     total cpu time spent up to now is       40.1 secs

     total energy              =    -133.95531508 Ry
     Harris-Foulkes estimate   =    -133.95531575 Ry
     estimated scf accuracy    <       0.00000222 Ry

     iteration # 12     ecut=    90.00 Ry     beta=0.20
     Davidson diagonalization with overlap
     ethr =  5.04E-09,  avg # of iterations =  2.5

     total cpu time spent up to now is       40.8 secs

     total energy              =    -133.95531506 Ry
     Harris-Foulkes estimate   =    -133.95531523 Ry
     estimated scf accuracy    <       0.00000044 Ry

     iteration # 13     ecut=    90.00 Ry     beta=0.20
     Davidson diagonalization with overlap
     ethr =  9.98E-10,  avg # of iterations =  3.7

     total cpu time spent up to now is       41.6 secs

     total energy              =    -133.95531515 Ry
     Harris-Foulkes estimate   =    -133.95531515 Ry
     estimated scf accuracy    <       0.00000001 Ry

     iteration # 14     ecut=    90.00 Ry     beta=0.20
     Davidson diagonalization with overlap
     ethr =  3.14E-11,  avg # of iterations =  3.0

     total cpu time spent up to now is       42.3 secs

     total energy              =    -133.95531514 Ry
     Harris-Foulkes estimate   =    -133.95531515 Ry
     estimated scf accuracy    <       0.00000001 Ry

     iteration # 15     ecut=    90.00 Ry     beta=0.20
     Davidson diagonalization with overlap
     ethr =  2.50E-11,  avg # of iterations =  3.0

     total cpu time spent up to now is       43.2 secs

     End of self-consistent calculation

          k = 0.0000 0.0000 0.0000 ( 14623 PWs)   bands (ev):

   -18.0170 -17.7380 -15.4795 -15.4795 -10.8804 -10.6906  -8.7142  -8.1786
    -7.2281  -6.8752  -6.8752  -6.5526  -5.8593  -5.8593  -3.5475  -3.5475
    -0.8957  -0.6443  -0.0863   0.1137   1.0235   1.0235

          k = 0.0000 0.0000 0.4005 ( 14687 PWs)   bands (ev):

   -17.9108 -17.7587 -15.4576 -15.4576 -11.4656 -11.1059  -8.7767  -7.9740
    -7.0982  -7.0982  -6.0760  -5.8060  -5.8060  -5.5827  -3.5441  -3.5441
    -1.4693  -1.0869  -0.7413  -0.0219   1.2848   1.2848

          k = 0.0000 0.3333 0.0000 ( 14674 PWs)   bands (ev):

   -17.9481 -17.8084 -15.4830 -15.4825 -10.8098 -10.7154  -8.5694  -8.2633
    -7.4118  -7.1008  -6.8694  -6.8629  -5.4798  -5.4083  -3.6689  -3.6637
    -0.5860  -0.5141  -0.2210  -0.0899   1.1047   1.1147

          k = 0.0000 0.3333 0.4005 ( 14700 PWs)   bands (ev):

   -17.8696 -17.7932 -15.4679 -15.4672 -11.3540 -11.1700  -8.6642  -8.2715
    -7.0993  -7.0986  -6.1602  -6.0445  -5.4795  -5.3344  -3.6308  -3.6088
    -1.3002  -1.1031  -0.4863  -0.1201   1.1505   1.1656

          k = 0.3333 0.3333 0.0000 ( 14745 PWs)   bands (ev):

   -17.9098 -17.8398 -15.4912 -15.4886 -10.7880 -10.7392  -8.5555  -8.4083
    -7.2272  -6.8897  -6.8893  -6.7919  -5.8659  -5.4412  -3.7154  -3.6513
    -0.4433  -0.3473  -0.2873  -0.0844   1.0997   1.1718

          k = 0.3333 0.3333 0.4005 ( 14669 PWs)   bands (ev):

   -17.8472 -17.8090 -15.4731 -15.4688 -11.3376 -11.2394  -8.5176  -8.2979
    -7.1220  -7.1114  -6.0964  -5.8196  -5.8154  -5.4010  -3.6463  -3.6059
    -1.2932  -1.1821  -0.2878  -0.0945   1.1175   1.2714

     highest occupied level (ev):     1.2848

!    total energy              =    -133.95531514 Ry
     Harris-Foulkes estimate   =    -133.95531515 Ry
     estimated scf accuracy    <          4.6E-09 Ry

     The total energy is the sum of the following terms:

     one-electron contribution =     -88.40107095 Ry
     hartree contribution      =      58.76545805 Ry
     xc contribution           =     -39.51485218 Ry
     ewald contribution        =     -64.74319772 Ry
     Dispersion Correction     =      -0.06165234 Ry

     convergence has been achieved in  15 iterations

     Forces acting on atoms (cartesian axes, Ry/au):

     atom    1 type  1   force =     0.00000000    0.00000000    0.08264733
     atom    2 type  1   force =     0.00000000    0.00000000   -0.08264733
     atom    3 type  2   force =     0.00000000    0.00000000   -0.08507742
     atom    4 type  2   force =     0.00000000    0.00000000    0.08507742
     atom    5 type  3   force =    -0.01089045   -0.01089045    0.04005304
     atom    6 type  3   force =     0.01089045    0.01089045    0.04005304
     atom    7 type  3   force =    -0.01089045    0.01089045   -0.04005304
     atom    8 type  3   force =     0.01089045   -0.01089045   -0.04005304
     atom    9 type  4   force =     0.00843240    0.00843240   -0.01015066
     atom   10 type  4   force =    -0.00843240   -0.00843240   -0.01015066
     atom   11 type  4   force =     0.00843240   -0.00843240    0.01015066
     atom   12 type  4   force =    -0.00843240    0.00843240    0.01015066
     atom   13 type  4   force =     0.00474337    0.00474337   -0.04194892
     atom   14 type  4   force =    -0.00474337   -0.00474337   -0.04194892
     atom   15 type  4   force =     0.00474337   -0.00474337    0.04194892
     atom   16 type  4   force =    -0.00474337    0.00474337    0.04194892

     Total force =     0.209053     Total SCF correction =     0.000132

     number of scf cycles    =   3
     number of bfgs steps    =   2

     energy   old            =    -133.8713398063 Ry
     energy   new            =    -133.9553151435 Ry

     CASE: energy  _new < energy  _old

     new trust radius        =       0.1038460951 bohr
     new conv_thr            =       0.0000000085 Ry


ATOMIC_POSITIONS (crystal)
C        0.000000000   0.500000000   0.332856690
C        0.500000000   0.000000000   0.667143285
O        0.000000000   0.500000000   0.621770676
O        0.500000000   0.000000000   0.378229324
N        0.145932463   0.645932411   0.181692322
N        0.854067505   0.354067589   0.181692322
N        0.645932411   0.854067505   0.818307691
N        0.354067589   0.145932463   0.818307691
H        0.259602718   0.759602697   0.286695543
H        0.740397261   0.240397282   0.286695543
H        0.759602697   0.740397261   0.713304432
H        0.240397282   0.259602718   0.713304432
H        0.137569677   0.637569688   0.954723542
H        0.862430312   0.362430312   0.954723542
H        0.637569688   0.862430312   0.045276461
H        0.362430312   0.137569677   0.045276461



     Writing output data file urea.save
     NEW-OLD atomic charge density approx. for the potential

     total cpu time spent up to now is       44.0 secs

     per-process dynamical memory:    67.9 Mb

     Self-consistent Calculation

     iteration #  1     ecut=    90.00 Ry     beta=0.20
     Davidson diagonalization with overlap
     ethr =  1.00E-06,  avg # of iterations = 11.0

     total cpu time spent up to now is       46.2 secs

     total energy              =    -133.96509936 Ry
     Harris-Foulkes estimate   =    -133.97818997 Ry
     estimated scf accuracy    <       0.04638741 Ry

     iteration #  2     ecut=    90.00 Ry     beta=0.20
     Davidson diagonalization with overlap
     ethr =  1.05E-04,  avg # of iterations =  2.3

     total cpu time spent up to now is       46.8 secs

     total energy              =    -133.96517704 Ry
     Harris-Foulkes estimate   =    -133.96815914 Ry
     estimated scf accuracy    <       0.00966054 Ry

     iteration #  3     ecut=    90.00 Ry     beta=0.20
     Davidson diagonalization with overlap
     ethr =  2.20E-05,  avg # of iterations =  3.8

     total cpu time spent up to now is       47.7 secs

     total energy              =    -133.96654156 Ry
     Harris-Foulkes estimate   =    -133.96739653 Ry
     estimated scf accuracy    <       0.00286334 Ry

     iteration #  4     ecut=    90.00 Ry     beta=0.20
     Davidson diagonalization with overlap
     ethr =  6.51E-06,  avg # of iterations =  3.7

     total cpu time spent up to now is       48.7 secs

     total energy              =    -133.96678780 Ry
     Harris-Foulkes estimate   =    -133.96747828 Ry
     estimated scf accuracy    <       0.00240171 Ry

     iteration #  5     ecut=    90.00 Ry     beta=0.20
     Davidson diagonalization with overlap
     ethr =  5.46E-06,  avg # of iterations =  2.5

     total cpu time spent up to now is       49.4 secs

     total energy              =    -133.96693736 Ry
     Harris-Foulkes estimate   =    -133.96702502 Ry
     estimated scf accuracy    <       0.00023775 Ry

     iteration #  6     ecut=    90.00 Ry     beta=0.20
     Davidson diagonalization with overlap
     ethr =  5.40E-07,  avg # of iterations =  5.0

     total cpu time spent up to now is       50.3 secs

     total energy              =    -133.96701845 Ry
     Harris-Foulkes estimate   =    -133.96702098 Ry
     estimated scf accuracy    <       0.00002244 Ry

     iteration #  7     ecut=    90.00 Ry     beta=0.20
     Davidson diagonalization with overlap
     ethr =  5.10E-08,  avg # of iterations =  3.2

     total cpu time spent up to now is       51.1 secs

     total energy              =    -133.96702146 Ry
     Harris-Foulkes estimate   =    -133.96702109 Ry
     estimated scf accuracy    <       0.00000293 Ry

     iteration #  8     ecut=    90.00 Ry     beta=0.20
     Davidson diagonalization with overlap
     ethr =  6.66E-09,  avg # of iterations =  2.5

     total cpu time spent up to now is       51.9 secs

     total energy              =    -133.96702185 Ry
     Harris-Foulkes estimate   =    -133.96702196 Ry
     estimated scf accuracy    <       0.00000061 Ry

     iteration #  9     ecut=    90.00 Ry     beta=0.20
     Davidson diagonalization with overlap
     ethr =  1.38E-09,  avg # of iterations =  1.7

     total cpu time spent up to now is       52.5 secs

     total energy              =    -133.96702177 Ry
     Harris-Foulkes estimate   =    -133.96702189 Ry
     estimated scf accuracy    <       0.00000030 Ry

     iteration # 10     ecut=    90.00 Ry     beta=0.20
     Davidson diagonalization with overlap
     ethr =  6.90E-10,  avg # of iterations =  4.7

     total cpu time spent up to now is       53.4 secs

     total energy              =    -133.96702185 Ry
     Harris-Foulkes estimate   =    -133.96702187 Ry
     estimated scf accuracy    <       0.00000005 Ry

     iteration # 11     ecut=    90.00 Ry     beta=0.20
     Davidson diagonalization with overlap
     ethr =  1.13E-10,  avg # of iterations =  3.2

     total cpu time spent up to now is       54.1 secs

     total energy              =    -133.96702185 Ry
     Harris-Foulkes estimate   =    -133.96702186 Ry
     estimated scf accuracy    <       0.00000002 Ry

     iteration # 12     ecut=    90.00 Ry     beta=0.20
     Davidson diagonalization with overlap
     ethr =  4.43E-11,  avg # of iterations =  4.0

     total cpu time spent up to now is       55.0 secs

     End of self-consistent calculation

          k = 0.0000 0.0000 0.0000 ( 14623 PWs)   bands (ev):

   -17.9332 -17.6502 -15.2526 -15.2526 -11.4858 -11.2862  -8.6977  -8.1294
    -7.0240  -6.6609  -6.6609  -6.3095  -5.6523  -5.6523  -3.6068  -3.6068
    -0.8088  -0.8076  -0.1960   0.1895   0.8675   0.8675

          k = 0.0000 0.0000 0.4005 ( 14687 PWs)   bands (ev):

   -17.8192 -17.6727 -15.2285 -15.2285 -11.9828 -11.5864  -8.7079  -7.9773
    -6.9011  -6.9011  -5.9748  -5.6177  -5.6177  -5.5721  -3.5993  -3.5993
    -1.5590  -1.1075  -0.6438   0.0431   1.1234   1.1234

          k = 0.0000 0.3333 0.0000 ( 14674 PWs)   bands (ev):

   -17.8634 -17.7217 -15.2566 -15.2560 -11.4181 -11.3187  -8.5653  -8.2630
    -7.1527  -6.8850  -6.6175  -6.5689  -5.2991  -5.2221  -3.7531  -3.7396
    -0.6406  -0.5076  -0.3253  -0.0224   0.9491   0.9610

          k = 0.0000 0.3333 0.4005 ( 14700 PWs)   bands (ev):

   -17.7792 -17.7056 -15.2410 -15.2401 -11.8649 -11.6644  -8.5966  -8.2375
    -6.9063  -6.9049  -6.0259  -5.9309  -5.3543  -5.2247  -3.7065  -3.6751
    -1.3547  -1.1271  -0.3981  -0.0450   0.9980   1.0127

          k = 0.3333 0.3333 0.0000 ( 14745 PWs)   bands (ev):

   -17.8248 -17.7537 -15.2650 -15.2625 -11.3942 -11.3437  -8.5289  -8.3859
    -6.9926  -6.6774  -6.6491  -6.5419  -5.6526  -5.2551  -3.7978  -3.7129
    -0.5721  -0.4098  -0.2667  -0.0039   0.9317   1.0350

          k = 0.3333 0.3333 0.4005 ( 14669 PWs)   bands (ev):

   -17.7576 -17.7207 -15.2464 -15.2402 -11.8379 -11.7339  -8.4659  -8.2685
    -6.9263  -6.9185  -5.9682  -5.7666  -5.6351  -5.2861  -3.7106  -3.6482
    -1.3506  -1.2188  -0.2018  -0.0123   0.9533   1.0970

     highest occupied level (ev):     1.1234

!    total energy              =    -133.96702186 Ry
     Harris-Foulkes estimate   =    -133.96702186 Ry
     estimated scf accuracy    <          1.0E-09 Ry

     The total energy is the sum of the following terms:

     one-electron contribution =     -88.81592828 Ry
     hartree contribution      =      58.99065765 Ry
     xc contribution           =     -39.51524349 Ry
     ewald contribution        =     -64.56451871 Ry
     Dispersion Correction     =      -0.06198903 Ry

     convergence has been achieved in  12 iterations

     Forces acting on atoms (cartesian axes, Ry/au):

     atom    1 type  1   force =     0.00000000    0.00000000   -0.06166658
     atom    2 type  1   force =     0.00000000    0.00000000    0.06166658
     atom    3 type  2   force =     0.00000000    0.00000000    0.05460133
     atom    4 type  2   force =     0.00000000    0.00000000   -0.05460133
     atom    5 type  3   force =     0.00236196    0.00236196   -0.02478900
     atom    6 type  3   force =    -0.00236196   -0.00236196   -0.02478900
     atom    7 type  3   force =     0.00236196   -0.00236196    0.02478900
     atom    8 type  3   force =    -0.00236196    0.00236196    0.02478900
     atom    9 type  4   force =     0.00392101    0.00392101   -0.00775291
     atom   10 type  4   force =    -0.00392101   -0.00392101   -0.00775291
     atom   11 type  4   force =     0.00392101   -0.00392101    0.00775291
     atom   12 type  4   force =    -0.00392101    0.00392101    0.00775291
     atom   13 type  4   force =    -0.00173260   -0.00173260    0.02429769
     atom   14 type  4   force =     0.00173260    0.00173260    0.02429769
     atom   15 type  4   force =    -0.00173260    0.00173260   -0.02429769
     atom   16 type  4   force =     0.00173260   -0.00173260   -0.02429769

     Total force =     0.137185     Total SCF correction =     0.000031

     number of scf cycles    =   4
     number of bfgs steps    =   3

     energy   old            =    -133.9553151435 Ry
     energy   new            =    -133.9670218552 Ry

     CASE: energy  _new < energy  _old

     new trust radius        =       0.0422935666 bohr
     new conv_thr            =       0.0000000062 Ry


ATOMIC_POSITIONS (crystal)
C        0.000000000   0.500000000   0.328106946
C        0.500000000   0.000000000   0.671893029
O        0.000000000   0.500000000   0.625896615
O        0.500000000   0.000000000   0.374103385
N        0.146135582   0.646135530   0.179651769
N        0.853864386   0.353864470   0.179651769
N        0.646135530   0.853864386   0.820348244
N        0.353864470   0.146135582   0.820348244
H        0.259710237   0.759710216   0.286213718
H        0.740289742   0.240289763   0.286213718
H        0.759710216   0.740289742   0.713786257
H        0.240289763   0.259710237   0.713786257
H        0.137434287   0.637434298   0.956876802
H        0.862565702   0.362565702   0.956876802
H        0.637434298   0.862565702   0.043123201
H        0.362565702   0.137434287   0.043123201



     Writing output data file urea.save
     NEW-OLD atomic charge density approx. for the potential

     total cpu time spent up to now is       55.8 secs

     per-process dynamical memory:    67.9 Mb

     Self-consistent Calculation

     iteration #  1     ecut=    90.00 Ry     beta=0.20
     Davidson diagonalization with overlap
     ethr =  1.00E-06,  avg # of iterations =  8.2

     total cpu time spent up to now is       57.7 secs

     total energy              =    -133.97299871 Ry
     Harris-Foulkes estimate   =    -133.97491095 Ry
     estimated scf accuracy    <       0.00686306 Ry

     iteration #  2     ecut=    90.00 Ry     beta=0.20
     Davidson diagonalization with overlap
     ethr =  1.56E-05,  avg # of iterations =  2.0

     total cpu time spent up to now is       58.7 secs

     total energy              =    -133.97278475 Ry
     Harris-Foulkes estimate   =    -133.97338567 Ry
     estimated scf accuracy    <       0.00172883 Ry

     iteration #  3     ecut=    90.00 Ry     beta=0.20
     Davidson diagonalization with overlap
     ethr =  3.93E-06,  avg # of iterations =  3.5

     total cpu time spent up to now is       60.5 secs

     total energy              =    -133.97300695 Ry
     Harris-Foulkes estimate   =    -133.97316974 Ry
     estimated scf accuracy    <       0.00047930 Ry

     iteration #  4     ecut=    90.00 Ry     beta=0.20
     Davidson diagonalization with overlap
     ethr =  1.09E-06,  avg # of iterations =  3.3

     total cpu time spent up to now is       62.4 secs

     total energy              =    -133.97306507 Ry
     Harris-Foulkes estimate   =    -133.97319891 Ry
     estimated scf accuracy    <       0.00046422 Ry

     iteration #  5     ecut=    90.00 Ry     beta=0.20
     Davidson diagonalization with overlap
     ethr =  1.06E-06,  avg # of iterations =  2.3

     total cpu time spent up to now is       63.1 secs

     total energy              =    -133.97308512 Ry
     Harris-Foulkes estimate   =    -133.97310662 Ry
     estimated scf accuracy    <       0.00006344 Ry

     iteration #  6     ecut=    90.00 Ry     beta=0.20
     Davidson diagonalization with overlap
     ethr =  1.44E-07,  avg # of iterations =  4.3

     total cpu time spent up to now is       64.0 secs

     total energy              =    -133.97310277 Ry
     Harris-Foulkes estimate   =    -133.97310254 Ry
     estimated scf accuracy    <       0.00000211 Ry

     iteration #  7     ecut=    90.00 Ry     beta=0.20
     Davidson diagonalization with overlap
     ethr =  4.80E-09,  avg # of iterations =  3.2

     total cpu time spent up to now is       64.7 secs

     total energy              =    -133.97310318 Ry
     Harris-Foulkes estimate   =    -133.97310309 Ry
     estimated scf accuracy    <       0.00000093 Ry

     iteration #  8     ecut=    90.00 Ry     beta=0.20
     Davidson diagonalization with overlap
     ethr =  2.12E-09,  avg # of iterations =  2.5

     total cpu time spent up to now is       65.4 secs

     total energy              =    -133.97310328 Ry
     Harris-Foulkes estimate   =    -133.97310330 Ry
     estimated scf accuracy    <       0.00000042 Ry

     iteration #  9     ecut=    90.00 Ry     beta=0.20
     Davidson diagonalization with overlap
     ethr =  9.66E-10,  avg # of iterations =  1.2

     total cpu time spent up to now is       66.1 secs

     total energy              =    -133.97310315 Ry
     Harris-Foulkes estimate   =    -133.97310329 Ry
     estimated scf accuracy    <       0.00000038 Ry

     iteration # 10     ecut=    90.00 Ry     beta=0.20
     Davidson diagonalization with overlap
     ethr =  8.65E-10,  avg # of iterations =  3.7

     total cpu time spent up to now is       67.2 secs

     total energy              =    -133.97310320 Ry
     Harris-Foulkes estimate   =    -133.97310320 Ry
     estimated scf accuracy    <       0.00000002 Ry

     iteration # 11     ecut=    90.00 Ry     beta=0.20
     Davidson diagonalization with overlap
     ethr =  5.56E-11,  avg # of iterations =  4.0

     total cpu time spent up to now is       68.2 secs

     End of self-consistent calculation

          k = 0.0000 0.0000 0.0000 ( 14623 PWs)   bands (ev):

   -17.9636 -17.6834 -15.3265 -15.3265 -11.2376 -11.0414  -8.7133  -8.1240
    -7.1233  -6.7399  -6.7399  -6.3807  -5.7192  -5.7192  -3.5830  -3.5830
    -0.8378  -0.7452  -0.1395   0.1647   0.9289   0.9289

          k = 0.0000 0.0000 0.4005 ( 14687 PWs)   bands (ev):

   -17.8524 -17.7053 -15.3032 -15.3032 -11.7715 -11.3862  -8.7295  -7.9607
    -6.9720  -6.9720  -6.0136  -5.6782  -5.6782  -5.5650  -3.5787  -3.5787
    -1.5333  -1.0994  -0.6773   0.0230   1.1895   1.1895

          k = 0.0000 0.3333 0.0000 ( 14674 PWs)   bands (ev):

   -17.8944 -17.7542 -15.3304 -15.3298 -11.1691 -11.0713  -8.5723  -8.2529
    -7.2556  -6.9571  -6.7127  -6.6768  -5.3544  -5.2763  -3.7199  -3.7094
    -0.5893  -0.5331  -0.2747  -0.0434   1.0104   1.0207

          k = 0.0000 0.3333 0.4005 ( 14700 PWs)   bands (ev):

   -17.8123 -17.7384 -15.3148 -15.3141 -11.6556 -11.4599  -8.6157  -8.2388
    -6.9754  -6.9742  -6.0698  -5.9628  -5.3951  -5.2580  -3.6771  -3.6493
    -1.3392  -1.1186  -0.4278  -0.0693   1.0572   1.0723

          k = 0.3333 0.3333 0.0000 ( 14745 PWs)   bands (ev):

   -17.8561 -17.7857 -15.3386 -15.3361 -11.1460 -11.0961  -8.5399  -8.3896
    -7.0781  -6.7557  -6.7387  -6.6316  -5.7219  -5.3111  -3.7651  -3.6880
    -0.5174  -0.3539  -0.2932  -0.0306   0.9984   1.0883

          k = 0.3333 0.3333 0.4005 ( 14669 PWs)   bands (ev):

   -17.7906 -17.7536 -15.3201 -15.3147 -11.6321 -11.5298  -8.4775  -8.2692
    -6.9966  -6.9875  -6.0082  -5.7787  -5.6944  -5.3224  -3.6855  -3.6325
    -1.3334  -1.2072  -0.2306  -0.0396   1.0172   1.1676

     highest occupied level (ev):     1.1895

!    total energy              =    -133.97310320 Ry
     Harris-Foulkes estimate   =    -133.97310320 Ry
     estimated scf accuracy    <          2.4E-09 Ry

     The total energy is the sum of the following terms:

     one-electron contribution =     -88.60098921 Ry
     hartree contribution      =      58.87936998 Ry
     xc contribution           =     -39.50491165 Ry
     ewald contribution        =     -64.68470713 Ry
     Dispersion Correction     =      -0.06186521 Ry

     convergence has been achieved in  11 iterations

     Forces acting on atoms (cartesian axes, Ry/au):

     atom    1 type  1   force =     0.00000000    0.00000000    0.00557209
     atom    2 type  1   force =     0.00000000    0.00000000   -0.00557209
     atom    3 type  2   force =     0.00000000    0.00000000   -0.00969593
     atom    4 type  2   force =     0.00000000    0.00000000    0.00969593
     atom    5 type  3   force =     0.00166731    0.00166731   -0.00238070
     atom    6 type  3   force =    -0.00166731   -0.00166731   -0.00238070
     atom    7 type  3   force =     0.00166731   -0.00166731    0.00238070
     atom    8 type  3   force =    -0.00166731    0.00166731    0.00238070
     atom    9 type  4   force =     0.00290790    0.00290790   -0.00941085
     atom   10 type  4   force =    -0.00290790   -0.00290790   -0.00941085
     atom   11 type  4   force =     0.00290790   -0.00290790    0.00941085
     atom   12 type  4   force =    -0.00290790    0.00290790    0.00941085
     atom   13 type  4   force =     0.00030164    0.00030164    0.00171514
     atom   14 type  4   force =    -0.00030164   -0.00030164    0.00171514
     atom   15 type  4   force =     0.00030164   -0.00030164   -0.00171514
     atom   16 type  4   force =    -0.00030164    0.00030164   -0.00171514

     Total force =     0.027008     Total SCF correction =     0.000108

     number of scf cycles    =   5
     number of bfgs steps    =   4

     energy   old            =    -133.9670218552 Ry
     energy   new            =    -133.9731032033 Ry

     CASE: energy  _new < energy  _old

     new trust radius        =       0.0106629558 bohr
     new conv_thr            =       0.0000000010 Ry


ATOMIC_POSITIONS (crystal)
C        0.000000000   0.500000000   0.328210745
C        0.500000000   0.000000000   0.671789230
O        0.000000000   0.500000000   0.625103792
O        0.500000000   0.000000000   0.374896208
N        0.146232789   0.646232737   0.179420086
N        0.853767179   0.353767263   0.179420086
N        0.646232737   0.853767179   0.820579927
N        0.353767263   0.146232789   0.820579927
H        0.259993675   0.759993654   0.285117323
H        0.740006304   0.240006325   0.285117323
H        0.759993654   0.740006304   0.714882652
H        0.240006325   0.259993675   0.714882652
H        0.137451915   0.637451926   0.957149349
H        0.862548074   0.362548074   0.957149349
H        0.637451926   0.862548074   0.042850654
H        0.362548074   0.137451915   0.042850654



     Writing output data file urea.save
     NEW-OLD atomic charge density approx. for the potential

     total cpu time spent up to now is       69.1 secs

     per-process dynamical memory:    67.9 Mb

     Self-consistent Calculation

     iteration #  1     ecut=    90.00 Ry     beta=0.20
     Davidson diagonalization with overlap
     ethr =  1.00E-06,  avg # of iterations =  4.3

     total cpu time spent up to now is       71.2 secs

     total energy              =    -133.97366923 Ry
     Harris-Foulkes estimate   =    -133.97371409 Ry
     estimated scf accuracy    <       0.00021131 Ry

     iteration #  2     ecut=    90.00 Ry     beta=0.20
     Davidson diagonalization with overlap
     ethr =  4.80E-07,  avg # of iterations =  1.2

     total cpu time spent up to now is       72.0 secs

     total energy              =    -133.97363124 Ry
     Harris-Foulkes estimate   =    -133.97367532 Ry
     estimated scf accuracy    <       0.00010186 Ry

     iteration #  3     ecut=    90.00 Ry     beta=0.20
     Davidson diagonalization with overlap
     ethr =  2.31E-07,  avg # of iterations =  3.5

     total cpu time spent up to now is       73.8 secs

     total energy              =    -133.97366195 Ry
     Harris-Foulkes estimate   =    -133.97365509 Ry
     estimated scf accuracy    <       0.00002413 Ry

     iteration #  4     ecut=    90.00 Ry     beta=0.20
     Davidson diagonalization with overlap
     ethr =  5.48E-08,  avg # of iterations =  3.0

     total cpu time spent up to now is       74.6 secs

     total energy              =    -133.97363733 Ry
     Harris-Foulkes estimate   =    -133.97366386 Ry
     estimated scf accuracy    <       0.00005117 Ry

     iteration #  5     ecut=    90.00 Ry     beta=0.20
     Davidson diagonalization with overlap
     ethr =  5.48E-08,  avg # of iterations =  3.8

     total cpu time spent up to now is       75.9 secs

     total energy              =    -133.97365098 Ry
     Harris-Foulkes estimate   =    -133.97365154 Ry
     estimated scf accuracy    <       0.00000505 Ry

     iteration #  6     ecut=    90.00 Ry     beta=0.20
     Davidson diagonalization with overlap
     ethr =  1.15E-08,  avg # of iterations =  1.7

     total cpu time spent up to now is       76.6 secs

     total energy              =    -133.97365007 Ry
     Harris-Foulkes estimate   =    -133.97365114 Ry
     estimated scf accuracy    <       0.00000324 Ry

     iteration #  7     ecut=    90.00 Ry     beta=0.20
     Davidson diagonalization with overlap
     ethr =  7.37E-09,  avg # of iterations =  3.7

     total cpu time spent up to now is       77.4 secs

     total energy              =    -133.97365055 Ry
     Harris-Foulkes estimate   =    -133.97365054 Ry
     estimated scf accuracy    <       0.00000017 Ry

     iteration #  8     ecut=    90.00 Ry     beta=0.20
     Davidson diagonalization with overlap
     ethr =  3.90E-10,  avg # of iterations =  4.8

     total cpu time spent up to now is       78.4 secs

     total energy              =    -133.97365049 Ry
     Harris-Foulkes estimate   =    -133.97365057 Ry
     estimated scf accuracy    <       0.00000018 Ry

     iteration #  9     ecut=    90.00 Ry     beta=0.20
     Davidson diagonalization with overlap
     ethr =  3.90E-10,  avg # of iterations =  3.0

     total cpu time spent up to now is       79.4 secs

     total energy              =    -133.97365052 Ry
     Harris-Foulkes estimate   =    -133.97365053 Ry
     estimated scf accuracy    <       0.00000002 Ry

     iteration # 10     ecut=    90.00 Ry     beta=0.20
     Davidson diagonalization with overlap
     ethr =  4.11E-11,  avg # of iterations =  3.0

     total cpu time spent up to now is       80.4 secs

     total energy              =    -133.97365052 Ry
     Harris-Foulkes estimate   =    -133.97365053 Ry
     estimated scf accuracy    <          6.7E-09 Ry

     iteration # 11     ecut=    90.00 Ry     beta=0.20
     Davidson diagonalization with overlap
     ethr =  1.53E-11,  avg # of iterations =  2.7

     total cpu time spent up to now is       81.1 secs

     total energy              =    -133.97365052 Ry
     Harris-Foulkes estimate   =    -133.97365052 Ry
     estimated scf accuracy    <          2.4E-09 Ry

     iteration # 12     ecut=    90.00 Ry     beta=0.20
     Davidson diagonalization with overlap
     ethr =  5.41E-12,  avg # of iterations =  4.2

     total cpu time spent up to now is       82.2 secs

     End of self-consistent calculation

          k = 0.0000 0.0000 0.0000 ( 14623 PWs)   bands (ev):

   -17.9604 -17.6789 -15.3283 -15.3283 -11.2726 -11.0784  -8.7160  -8.1301
    -7.1224  -6.7494  -6.7494  -6.3738  -5.7267  -5.7267  -3.5823  -3.5823
    -0.8404  -0.7605  -0.1492   0.1642   0.9315   0.9315

          k = 0.0000 0.0000 0.4005 ( 14687 PWs)   bands (ev):

   -17.8489 -17.7010 -15.3051 -15.3051 -11.8010 -11.4148  -8.7369  -7.9656
    -6.9809  -6.9809  -6.0222  -5.6851  -5.6851  -5.5747  -3.5781  -3.5780
    -1.5361  -1.0974  -0.6803   0.0230   1.1809   1.1809

          k = 0.0000 0.3333 0.0000 ( 14674 PWs)   bands (ev):

   -17.8910 -17.7501 -15.3321 -15.3316 -11.2050 -11.1083  -8.5757  -8.2583
    -7.2526  -6.9547  -6.7221  -6.6841  -5.3631  -5.2837  -3.7193  -3.7086
    -0.6013  -0.5351  -0.2843  -0.0441   1.0141   1.0242

          k = 0.0000 0.3333 0.4005 ( 14700 PWs)   bands (ev):

   -17.8086 -17.7343 -15.3167 -15.3159 -11.6853 -11.4893  -8.6211  -8.2429
    -6.9842  -6.9830  -6.0779  -5.9710  -5.4048  -5.2683  -3.6762  -3.6485
    -1.3397  -1.1169  -0.4303  -0.0701   1.0498   1.0649

          k = 0.3333 0.3333 0.0000 ( 14745 PWs)   bands (ev):

   -17.8525 -17.7817 -15.3405 -15.3379 -11.1819 -11.1327  -8.5440  -8.3942
    -7.0752  -6.7650  -6.7444  -6.6308  -5.7292  -5.3192  -3.7645  -3.6876
    -0.5296  -0.3651  -0.2949  -0.0316   1.0031   1.0929

          k = 0.3333 0.3333 0.4005 ( 14669 PWs)   bands (ev):

   -17.7868 -17.7496 -15.3220 -15.3166 -11.6614 -11.5590  -8.4832  -8.2748
    -7.0053  -6.9962  -6.0161  -5.7880  -5.7010  -5.3323  -3.6848  -3.6321
    -1.3338  -1.2063  -0.2326  -0.0407   1.0095   1.1589

     highest occupied level (ev):     1.1809

!    total energy              =    -133.97365052 Ry
     Harris-Foulkes estimate   =    -133.97365052 Ry
     estimated scf accuracy    <          2.2E-10 Ry

     The total energy is the sum of the following terms:

     one-electron contribution =     -88.65867715 Ry
     hartree contribution      =      58.90457584 Ry
     xc contribution           =     -39.51436480 Ry
     ewald contribution        =     -64.64331734 Ry
     Dispersion Correction     =      -0.06186708 Ry

     convergence has been achieved in  12 iterations

     Forces acting on atoms (cartesian axes, Ry/au):

     atom    1 type  1   force =     0.00000000    0.00000000   -0.00048746
     atom    2 type  1   force =     0.00000000    0.00000000    0.00048746
     atom    3 type  2   force =     0.00000000    0.00000000   -0.00445067
     atom    4 type  2   force =     0.00000000    0.00000000    0.00445067
     atom    5 type  3   force =     0.00042329    0.00042329   -0.00052937
     atom    6 type  3   force =    -0.00042329   -0.00042329   -0.00052937
     atom    7 type  3   force =     0.00042329   -0.00042329    0.00052937
     atom    8 type  3   force =    -0.00042329    0.00042329    0.00052937
     atom    9 type  4   force =     0.00307380    0.00307380   -0.00821743
     atom   10 type  4   force =    -0.00307380   -0.00307380   -0.00821743
     atom   11 type  4   force =     0.00307380   -0.00307380    0.00821743
     atom   12 type  4   force =    -0.00307380    0.00307380    0.00821743
     atom   13 type  4   force =     0.00008314    0.00008314   -0.00074037
     atom   14 type  4   force =    -0.00008314   -0.00008314   -0.00074037
     atom   15 type  4   force =     0.00008314   -0.00008314    0.00074037
     atom   16 type  4   force =    -0.00008314    0.00008314    0.00074037

     Total force =     0.019763     Total SCF correction =     0.000031

     number of scf cycles    =   6
     number of bfgs steps    =   5

     energy   old            =    -133.9731032033 Ry
     energy   new            =    -133.9736505239 Ry

     CASE: energy  _new < energy  _old

     new trust radius        =       0.0117292513 bohr
     new conv_thr            =       0.0000000005 Ry


ATOMIC_POSITIONS (crystal)
C        0.000000000   0.500000000   0.328092760
C        0.500000000   0.000000000   0.671907215
O        0.000000000   0.500000000   0.624546726
O        0.500000000   0.000000000   0.375453274
N        0.146306284   0.646306232   0.179216954
N        0.853693684   0.353693768   0.179216954
N        0.646306232   0.853693684   0.820783059
N        0.353693768   0.146306284   0.820783059
H        0.260350916   0.760350895   0.283948254
H        0.739649063   0.239649084   0.283948254
H        0.760350895   0.739649063   0.716051721
H        0.239649084   0.260350916   0.716051721
H        0.137463955   0.637463966   0.957210497
H        0.862536034   0.362536034   0.957210497
H        0.637463966   0.862536034   0.042789506
H        0.362536034   0.137463955   0.042789506



     Writing output data file urea.save
     NEW-OLD atomic charge density approx. for the potential

     total cpu time spent up to now is       83.0 secs

     per-process dynamical memory:    67.9 Mb

     Self-consistent Calculation

     iteration #  1     ecut=    90.00 Ry     beta=0.20
     Davidson diagonalization with overlap
     ethr =  1.00E-06,  avg # of iterations =  3.0

     total cpu time spent up to now is       84.2 secs

     total energy              =    -133.97411117 Ry
     Harris-Foulkes estimate   =    -133.97414894 Ry
     estimated scf accuracy    <       0.00018679 Ry

     iteration #  2     ecut=    90.00 Ry     beta=0.20
     Davidson diagonalization with overlap
     ethr =  4.25E-07,  avg # of iterations =  2.2

     total cpu time spent up to now is       84.8 secs

     total energy              =    -133.97408057 Ry
     Harris-Foulkes estimate   =    -133.97411775 Ry
     estimated scf accuracy    <       0.00009230 Ry

     iteration #  3     ecut=    90.00 Ry     beta=0.20
     Davidson diagonalization with overlap
     ethr =  2.10E-07,  avg # of iterations =  2.3

     total cpu time spent up to now is       85.6 secs

     total energy              =    -133.97409422 Ry
     Harris-Foulkes estimate   =    -133.97409627 Ry
     estimated scf accuracy    <       0.00001264 Ry

     iteration #  4     ecut=    90.00 Ry     beta=0.20
     Davidson diagonalization with overlap
     ethr =  2.87E-08,  avg # of iterations =  3.3

     total cpu time spent up to now is       86.3 secs

     total energy              =    -133.97409327 Ry
     Harris-Foulkes estimate   =    -133.97409526 Ry
     estimated scf accuracy    <       0.00000690 Ry

     iteration #  5     ecut=    90.00 Ry     beta=0.20
     Davidson diagonalization with overlap
     ethr =  1.57E-08,  avg # of iterations =  3.5

     total cpu time spent up to now is       87.2 secs

     total energy              =    -133.97409451 Ry
     Harris-Foulkes estimate   =    -133.97409511 Ry
     estimated scf accuracy    <       0.00000195 Ry

     iteration #  6     ecut=    90.00 Ry     beta=0.20
     Davidson diagonalization with overlap
     ethr =  4.44E-09,  avg # of iterations =  3.8

     total cpu time spent up to now is       88.1 secs

     total energy              =    -133.97409448 Ry
     Harris-Foulkes estimate   =    -133.97409471 Ry
     estimated scf accuracy    <       0.00000055 Ry

     iteration #  7     ecut=    90.00 Ry     beta=0.20
     Davidson diagonalization with overlap
     ethr =  1.26E-09,  avg # of iterations =  4.5

     total cpu time spent up to now is       89.8 secs

     total energy              =    -133.97409469 Ry
     Harris-Foulkes estimate   =    -133.97409479 Ry
     estimated scf accuracy    <       0.00000045 Ry

     iteration #  8     ecut=    90.00 Ry     beta=0.20
     Davidson diagonalization with overlap
     ethr =  1.01E-09,  avg # of iterations =  1.5

     total cpu time spent up to now is       90.8 secs

     total energy              =    -133.97409463 Ry
     Harris-Foulkes estimate   =    -133.97409470 Ry
     estimated scf accuracy    <       0.00000016 Ry

     iteration #  9     ecut=    90.00 Ry     beta=0.20
     Davidson diagonalization with overlap
     ethr =  3.61E-10,  avg # of iterations =  4.5

     total cpu time spent up to now is       92.0 secs

     total energy              =    -133.97409468 Ry
     Harris-Foulkes estimate   =    -133.97409468 Ry
     estimated scf accuracy    <       0.00000002 Ry

     iteration # 10     ecut=    90.00 Ry     beta=0.20
     Davidson diagonalization with overlap
     ethr =  3.99E-11,  avg # of iterations =  3.0

     total cpu time spent up to now is       93.0 secs

     total energy              =    -133.97409468 Ry
     Harris-Foulkes estimate   =    -133.97409468 Ry
     estimated scf accuracy    <          9.8E-10 Ry

     iteration # 11     ecut=    90.00 Ry     beta=0.20
     Davidson diagonalization with overlap
     ethr =  2.22E-12,  avg # of iterations =  4.7

     total cpu time spent up to now is       94.0 secs

     End of self-consistent calculation

          k = 0.0000 0.0000 0.0000 ( 14623 PWs)   bands (ev):

   -17.9585 -17.6761 -15.3294 -15.3294 -11.2913 -11.0975  -8.7216  -8.1347
    -7.1202  -6.7549  -6.7549  -6.3629  -5.7332  -5.7332  -3.5826  -3.5826
    -0.8429  -0.7692  -0.1516   0.1635   0.9341   0.9341

          k = 0.0000 0.0000 0.4005 ( 14687 PWs)   bands (ev):

   -17.8468 -17.6983 -15.3062 -15.3062 -11.8169 -11.4287  -8.7457  -7.9698
    -6.9849  -6.9849  -6.0221  -5.6928  -5.6928  -5.5735  -3.5783  -3.5783
    -1.5393  -1.0953  -0.6833   0.0227   1.1767   1.1767

          k = 0.0000 0.3333 0.0000 ( 14674 PWs)   bands (ev):

   -17.8888 -17.7475 -15.3332 -15.3326 -11.2240 -11.1275  -8.5813  -8.2636
    -7.2501  -6.9530  -6.7259  -6.6844  -5.3698  -5.2889  -3.7194  -3.7085
    -0.6076  -0.5371  -0.2876  -0.0451   1.0175   1.0274

          k = 0.0000 0.3333 0.4005 ( 14700 PWs)   bands (ev):

   -17.8063 -17.7318 -15.3178 -15.3170 -11.7010 -11.5041  -8.6280  -8.2475
    -6.9882  -6.9870  -6.0793  -5.9737  -5.4118  -5.2738  -3.6760  -3.6485
    -1.3409  -1.1155  -0.4327  -0.0711   1.0459   1.0610

          k = 0.3333 0.3333 0.0000 ( 14745 PWs)   bands (ev):

   -17.8502 -17.7793 -15.3415 -15.3389 -11.2009 -11.1517  -8.5494  -8.3994
    -7.0727  -6.7704  -6.7456  -6.6254  -5.7355  -5.3250  -3.7646  -3.6882
    -0.5354  -0.3696  -0.2966  -0.0329   1.0071   1.0967

          k = 0.3333 0.3333 0.4005 ( 14669 PWs)   bands (ev):

   -17.7845 -17.7471 -15.3232 -15.3177 -11.6768 -11.5740  -8.4896  -8.2805
    -7.0091  -7.0001  -6.0182  -5.7877  -5.7086  -5.3383  -3.6847  -3.6325
    -1.3346  -1.2057  -0.2346  -0.0419   1.0053   1.1544

     highest occupied level (ev):     1.1767

!    total energy              =    -133.97409468 Ry
     Harris-Foulkes estimate   =    -133.97409468 Ry
     estimated scf accuracy    <          3.0E-10 Ry

     The total energy is the sum of the following terms:

     one-electron contribution =     -88.68159229 Ry
     hartree contribution      =      58.91378629 Ry
     xc contribution           =     -39.51889062 Ry
     ewald contribution        =     -64.62551659 Ry
     Dispersion Correction     =      -0.06188147 Ry

     convergence has been achieved in  11 iterations

     Forces acting on atoms (cartesian axes, Ry/au):

     atom    1 type  1   force =     0.00000000    0.00000000   -0.00278556
     atom    2 type  1   force =     0.00000000    0.00000000    0.00278556
     atom    3 type  2   force =     0.00000000    0.00000000   -0.00170752
     atom    4 type  2   force =     0.00000000    0.00000000    0.00170752
     atom    5 type  3   force =    -0.00017025   -0.00017025   -0.00042493
     atom    6 type  3   force =     0.00017025    0.00017025   -0.00042493
     atom    7 type  3   force =    -0.00017025    0.00017025    0.00042493
     atom    8 type  3   force =     0.00017025   -0.00017025    0.00042493
     atom    9 type  4   force =     0.00290156    0.00290156   -0.00703750
     atom   10 type  4   force =    -0.00290156   -0.00290156   -0.00703750
     atom   11 type  4   force =     0.00290156   -0.00290156    0.00703750
     atom   12 type  4   force =    -0.00290156    0.00290156    0.00703750
     atom   13 type  4   force =    -0.00011059   -0.00011059   -0.00201957
     atom   14 type  4   force =     0.00011059    0.00011059   -0.00201957
     atom   15 type  4   force =    -0.00011059    0.00011059    0.00201957
     atom   16 type  4   force =     0.00011059   -0.00011059    0.00201957

     Total force =     0.017441     Total SCF correction =     0.000030

     number of scf cycles    =   7
     number of bfgs steps    =   6

     energy   old            =    -133.9736505239 Ry
     energy   new            =    -133.9740946795 Ry

     CASE: energy  _new < energy  _old

     new trust radius        =       0.0175938770 bohr
     new conv_thr            =       0.0000000004 Ry


ATOMIC_POSITIONS (crystal)
C        0.000000000   0.500000000   0.327808792
C        0.500000000   0.000000000   0.672191183
O        0.000000000   0.500000000   0.623916717
O        0.500000000   0.000000000   0.376083283
N        0.146385960   0.646385908   0.178849743
N        0.853614008   0.353614092   0.178849743
N        0.646385908   0.853614008   0.821150270
N        0.353614092   0.146385960   0.821150270
H        0.260914923   0.760914902   0.282220317
H        0.739085056   0.239085077   0.282220317
H        0.760914902   0.739085056   0.717779658
H        0.239085077   0.260914923   0.717779658
H        0.137465627   0.637465638   0.957103283
H        0.862534362   0.362534362   0.957103283
H        0.637465638   0.862534362   0.042896720
H        0.362534362   0.137465627   0.042896720



     Writing output data file urea.save
     NEW-OLD atomic charge density approx. for the potential

     total cpu time spent up to now is       95.2 secs

     per-process dynamical memory:    67.9 Mb

     Self-consistent Calculation

     iteration #  1     ecut=    90.00 Ry     beta=0.20
     Davidson diagonalization with overlap
     ethr =  1.00E-06,  avg # of iterations =  3.5

     total cpu time spent up to now is       97.0 secs

     total energy              =    -133.97468950 Ry
     Harris-Foulkes estimate   =    -133.97477470 Ry
     estimated scf accuracy    <       0.00041735 Ry

     iteration #  2     ecut=    90.00 Ry     beta=0.20
     Davidson diagonalization with overlap
     ethr =  9.49E-07,  avg # of iterations =  1.0

     total cpu time spent up to now is       97.9 secs

     total energy              =    -133.97461242 Ry
     Harris-Foulkes estimate   =    -133.97469872 Ry
     estimated scf accuracy    <       0.00020555 Ry

     iteration #  3     ecut=    90.00 Ry     beta=0.20
     Davidson diagonalization with overlap
     ethr =  4.67E-07,  avg # of iterations =  2.3

     total cpu time spent up to now is       99.0 secs

     total energy              =    -133.97465042 Ry
     Harris-Foulkes estimate   =    -133.97465358 Ry
     estimated scf accuracy    <       0.00003114 Ry

     iteration #  4     ecut=    90.00 Ry     beta=0.20
     Davidson diagonalization with overlap
     ethr =  7.08E-08,  avg # of iterations =  3.0

     total cpu time spent up to now is       99.7 secs

     total energy              =    -133.97464483 Ry
     Harris-Foulkes estimate   =    -133.97465209 Ry
     estimated scf accuracy    <       0.00002454 Ry

     iteration #  5     ecut=    90.00 Ry     beta=0.20
     Davidson diagonalization with overlap
     ethr =  5.58E-08,  avg # of iterations =  2.7

     total cpu time spent up to now is      100.6 secs

     total energy              =    -133.97464779 Ry
     Harris-Foulkes estimate   =    -133.97464764 Ry
     estimated scf accuracy    <       0.00000303 Ry

     iteration #  6     ecut=    90.00 Ry     beta=0.20
     Davidson diagonalization with overlap
     ethr =  6.88E-09,  avg # of iterations =  4.2

     total cpu time spent up to now is      101.7 secs

     total energy              =    -133.97464797 Ry
     Harris-Foulkes estimate   =    -133.97464933 Ry
     estimated scf accuracy    <       0.00000549 Ry

     iteration #  7     ecut=    90.00 Ry     beta=0.20
     Davidson diagonalization with overlap
     ethr =  6.88E-09,  avg # of iterations =  2.3

     total cpu time spent up to now is      102.6 secs

     total energy              =    -133.97464736 Ry
     Harris-Foulkes estimate   =    -133.97464824 Ry
     estimated scf accuracy    <       0.00000176 Ry

     iteration #  8     ecut=    90.00 Ry     beta=0.20
     Davidson diagonalization with overlap
     ethr =  3.99E-09,  avg # of iterations =  3.3

     total cpu time spent up to now is      103.6 secs

     total energy              =    -133.97464782 Ry
     Harris-Foulkes estimate   =    -133.97464781 Ry
     estimated scf accuracy    <       0.00000012 Ry

     iteration #  9     ecut=    90.00 Ry     beta=0.20
     Davidson diagonalization with overlap
     ethr =  2.84E-10,  avg # of iterations =  5.3

     total cpu time spent up to now is      104.6 secs

     total energy              =    -133.97464781 Ry
     Harris-Foulkes estimate   =    -133.97464785 Ry
     estimated scf accuracy    <       0.00000017 Ry

     iteration # 10     ecut=    90.00 Ry     beta=0.20
     Davidson diagonalization with overlap
     ethr =  2.84E-10,  avg # of iterations =  2.5

     total cpu time spent up to now is      105.2 secs

     total energy              =    -133.97464779 Ry
     Harris-Foulkes estimate   =    -133.97464782 Ry
     estimated scf accuracy    <       0.00000006 Ry

     iteration # 11     ecut=    90.00 Ry     beta=0.20
     Davidson diagonalization with overlap
     ethr =  1.45E-10,  avg # of iterations =  4.8

     total cpu time spent up to now is      106.2 secs

     total energy              =    -133.97464780 Ry
     Harris-Foulkes estimate   =    -133.97464781 Ry
     estimated scf accuracy    <          3.9E-09 Ry

     iteration # 12     ecut=    90.00 Ry     beta=0.20
     Davidson diagonalization with overlap
     ethr =  8.96E-12,  avg # of iterations =  5.3

     total cpu time spent up to now is      107.3 secs

     total energy              =    -133.97464780 Ry
     Harris-Foulkes estimate   =    -133.97464781 Ry
     estimated scf accuracy    <          1.4E-09 Ry

     iteration # 13     ecut=    90.00 Ry     beta=0.20
     Davidson diagonalization with overlap
     ethr =  3.21E-12,  avg # of iterations =  3.8

     total cpu time spent up to now is      108.1 secs

     End of self-consistent calculation

          k = 0.0000 0.0000 0.0000 ( 14623 PWs)   bands (ev):

   -17.9545 -17.6711 -15.3275 -15.3275 -11.3079 -11.1144  -8.7289  -8.1369
    -7.1193  -6.7600  -6.7600  -6.3455  -5.7377  -5.7377  -3.5817  -3.5817
    -0.8453  -0.7791  -0.1510   0.1639   0.9364   0.9364

          k = 0.0000 0.0000 0.4005 ( 14687 PWs)   bands (ev):

   -17.8427 -17.6932 -15.3043 -15.3043 -11.8318 -11.4408  -8.7552  -7.9717
    -6.9877  -6.9877  -6.0190  -5.6994  -5.6994  -5.5672  -3.5775  -3.5775
    -1.5452  -1.0928  -0.6865   0.0240   1.1723   1.1723

          k = 0.0000 0.3333 0.0000 ( 14674 PWs)   bands (ev):

   -17.8846 -17.7428 -15.3312 -15.3307 -11.2410 -11.1447  -8.5877  -8.2674
    -7.2484  -6.9509  -6.7280  -6.6811  -5.3741  -5.2907  -3.7182  -3.7072
    -0.6142  -0.5387  -0.2891  -0.0451   1.0208   1.0305

          k = 0.0000 0.3333 0.4005 ( 14700 PWs)   bands (ev):

   -17.8020 -17.7270 -15.3160 -15.3152 -11.7156 -11.5173  -8.6349  -8.2506
[...]
     estimated scf accuracy    <       0.00083065 Ry

     iteration #  3     ecut=    90.00 Ry     beta=0.20
     Davidson diagonalization with overlap
     ethr =  1.89E-06,  avg # of iterations =  2.2

     total cpu time spent up to now is      298.1 secs

     total energy              =    -133.98484960 Ry
     Harris-Foulkes estimate   =    -133.98489669 Ry
     estimated scf accuracy    <       0.00014105 Ry

     iteration #  4     ecut=    90.00 Ry     beta=0.20
     Davidson diagonalization with overlap
     ethr =  3.21E-07,  avg # of iterations =  2.8

     total cpu time spent up to now is      299.1 secs

     total energy              =    -133.98487872 Ry
     Harris-Foulkes estimate   =    -133.98488218 Ry
     estimated scf accuracy    <       0.00005102 Ry

     iteration #  5     ecut=    90.00 Ry     beta=0.20
     Davidson diagonalization with overlap
     ethr =  1.16E-07,  avg # of iterations =  1.5

     total cpu time spent up to now is      299.8 secs

     total energy              =    -133.98487566 Ry
     Harris-Foulkes estimate   =    -133.98488163 Ry
     estimated scf accuracy    <       0.00001590 Ry

     iteration #  6     ecut=    90.00 Ry     beta=0.20
     Davidson diagonalization with overlap
     ethr =  3.61E-08,  avg # of iterations =  4.2

     total cpu time spent up to now is      300.7 secs

     total energy              =    -133.98487860 Ry
     Harris-Foulkes estimate   =    -133.98487868 Ry
     estimated scf accuracy    <       0.00000080 Ry

     iteration #  7     ecut=    90.00 Ry     beta=0.20
     Davidson diagonalization with overlap
     ethr =  1.81E-09,  avg # of iterations =  5.2

     total cpu time spent up to now is      301.6 secs

     total energy              =    -133.98487865 Ry
     Harris-Foulkes estimate   =    -133.98487882 Ry
     estimated scf accuracy    <       0.00000054 Ry

     iteration #  8     ecut=    90.00 Ry     beta=0.20
     Davidson diagonalization with overlap
     ethr =  1.24E-09,  avg # of iterations =  3.0

     total cpu time spent up to now is      302.5 secs

     total energy              =    -133.98487873 Ry
     Harris-Foulkes estimate   =    -133.98487883 Ry
     estimated scf accuracy    <       0.00000029 Ry

     iteration #  9     ecut=    90.00 Ry     beta=0.20
     Davidson diagonalization with overlap
     ethr =  6.53E-10,  avg # of iterations =  3.3

     total cpu time spent up to now is      303.5 secs

     total energy              =    -133.98487875 Ry
     Harris-Foulkes estimate   =    -133.98487879 Ry
     estimated scf accuracy    <       0.00000008 Ry

     iteration # 10     ecut=    90.00 Ry     beta=0.20
     Davidson diagonalization with overlap
     ethr =  1.81E-10,  avg # of iterations =  3.0

     total cpu time spent up to now is      304.4 secs

     total energy              =    -133.98487876 Ry
     Harris-Foulkes estimate   =    -133.98487877 Ry
     estimated scf accuracy    <       0.00000004 Ry

     iteration # 11     ecut=    90.00 Ry     beta=0.20
     Davidson diagonalization with overlap
     ethr =  8.35E-11,  avg # of iterations =  3.3

     total cpu time spent up to now is      305.1 secs

     total energy              =    -133.98487877 Ry
     Harris-Foulkes estimate   =    -133.98487877 Ry
     estimated scf accuracy    <          1.1E-09 Ry

     iteration # 12     ecut=    90.00 Ry     beta=0.20
     Davidson diagonalization with overlap
     ethr =  2.56E-12,  avg # of iterations =  5.5

     total cpu time spent up to now is      306.1 secs

     total energy              =    -133.98487877 Ry
     Harris-Foulkes estimate   =    -133.98487877 Ry
     estimated scf accuracy    <          6.8E-10 Ry

     iteration # 13     ecut=    90.00 Ry     beta=0.20
     Davidson diagonalization with overlap
     ethr =  1.54E-12,  avg # of iterations =  3.3

     total cpu time spent up to now is      307.1 secs

     End of self-consistent calculation

          k = 0.0000 0.0000 0.0000 ( 14623 PWs)   bands (ev):

   -17.9847 -17.6530 -15.3675 -15.3675 -11.1533 -11.1154  -8.5450  -8.3834
    -7.2329  -6.7939  -6.7939  -6.3738  -5.6909  -5.6909  -3.5744  -3.5744
    -1.0163  -0.9339  -0.1237   0.3145   0.9196   0.9196

          k = 0.0000 0.0000 0.4005 ( 14687 PWs)   bands (ev):

   -17.8992 -17.6488 -15.3444 -15.3444 -11.6928 -11.4504  -8.7749  -8.0403
    -7.0259  -7.0259  -6.0410  -5.6351  -5.6351  -5.6274  -3.5860  -3.5860
    -1.6587  -1.1058  -0.9206   0.2490   1.1639   1.1639

          k = 0.0000 0.3333 0.0000 ( 14674 PWs)   bands (ev):

   -17.9044 -17.7385 -15.3673 -15.3671 -11.1406 -11.1210  -8.4720  -8.3592
    -7.3021  -6.9146  -6.7810  -6.7638  -5.4093  -5.3471  -3.6866  -3.6846
    -0.7383  -0.6315  -0.3370   0.0249   1.0215   1.0261

          k = 0.0000 0.3333 0.4005 ( 14700 PWs)   bands (ev):

   -17.8358 -17.7103 -15.3503 -15.3495 -11.6266 -11.5040  -8.6280  -8.2617
    -7.0196  -7.0181  -6.1162  -5.9856  -5.4124  -5.3257  -3.6550  -3.6371
    -1.4534  -1.1774  -0.5713   0.0172   1.1139   1.1253

          k = 0.3333 0.3333 0.0000 ( 14745 PWs)   bands (ev):

   -17.8591 -17.7757 -15.3802 -15.3735 -11.1318 -11.1214  -8.5095  -8.4233
    -7.1044  -6.8151  -6.8047  -6.7168  -5.6884  -5.3737  -3.7240  -3.6649
    -0.6313  -0.4237  -0.3640  -0.0209   0.9899   1.0221

          k = 0.3333 0.3333 0.4005 ( 14669 PWs)   bands (ev):

   -17.8006 -17.7376 -15.3565 -15.3559 -11.6119 -11.5480  -8.5028  -8.3128
    -7.0539  -7.0334  -6.0432  -5.8366  -5.6416  -5.3646  -3.6646  -3.6397
    -1.4106  -1.2691  -0.3275  -0.0165   1.0635   1.1436

     highest occupied level (ev):     1.1639

!    total energy              =    -133.98487877 Ry
     Harris-Foulkes estimate   =    -133.98487877 Ry
     estimated scf accuracy    <          1.9E-11 Ry

     The total energy is the sum of the following terms:

     one-electron contribution =     -89.91910031 Ry
     hartree contribution      =      59.47858050 Ry
     xc contribution           =     -39.47191673 Ry
     ewald contribution        =     -64.00647313 Ry
     Dispersion Correction     =      -0.06596910 Ry

     convergence has been achieved in  13 iterations

     Forces acting on atoms (cartesian axes, Ry/au):

     atom    1 type  1   force =     0.00000000    0.00000000    0.00006009
     atom    2 type  1   force =     0.00000000    0.00000000   -0.00006009
     atom    3 type  2   force =     0.00000000    0.00000000    0.00279921
     atom    4 type  2   force =     0.00000000    0.00000000   -0.00279921
     atom    5 type  3   force =    -0.00087795   -0.00087795    0.00012813
     atom    6 type  3   force =     0.00087795    0.00087795    0.00012813
     atom    7 type  3   force =    -0.00087795    0.00087795   -0.00012813
     atom    8 type  3   force =     0.00087795   -0.00087795   -0.00012813
     atom    9 type  4   force =    -0.00070912   -0.00070912   -0.00096185
     atom   10 type  4   force =     0.00070912    0.00070912   -0.00096185
     atom   11 type  4   force =    -0.00070912    0.00070912    0.00096185
     atom   12 type  4   force =     0.00070912   -0.00070912    0.00096185
     atom   13 type  4   force =     0.00059872    0.00059872   -0.00070558
     atom   14 type  4   force =    -0.00059872   -0.00059872   -0.00070558
     atom   15 type  4   force =     0.00059872   -0.00059872    0.00070558
     atom   16 type  4   force =    -0.00059872    0.00059872    0.00070558

     Total force =     0.005873     Total SCF correction =     0.000005

     number of scf cycles    =  23
     number of bfgs steps    =  22

     energy   old            =    -133.9846905677 Ry
     energy   new            =    -133.9848787659 Ry

     CASE: energy  _new < energy  _old

     new trust radius        =       0.0102559205 bohr
     new conv_thr            =       0.0000000002 Ry


ATOMIC_POSITIONS (crystal)
C        0.000000000   0.500000000   0.273328325
C        0.500000000   0.000000000   0.726671650
O        0.000000000   0.500000000   0.570439807
O        0.500000000   0.000000000   0.429560193
N        0.146708563   0.646708511   0.124374907
N        0.853291405   0.353291489   0.124374907
N        0.646708511   0.853291405   0.875625106
N        0.353291489   0.146708563   0.875625106
H        0.259593120   0.759593099   0.231071582
H        0.740406859   0.240406880   0.231071582
H        0.759593099   0.740406859   0.768928393
H        0.240406880   0.259593120   0.768928393
H        0.138143906   0.638143917   0.902468824
H        0.861856083   0.361856083   0.902468824
H        0.638143917   0.861856083   0.097531179
H        0.361856083   0.138143906   0.097531179



     Writing output data file urea.save
     NEW-OLD atomic charge density approx. for the potential

     total cpu time spent up to now is      307.9 secs

     per-process dynamical memory:    67.9 Mb

     Self-consistent Calculation

     iteration #  1     ecut=    90.00 Ry     beta=0.20
     Davidson diagonalization with overlap
     ethr =  1.00E-06,  avg # of iterations =  4.0

     total cpu time spent up to now is      309.5 secs

     total energy              =    -133.98493393 Ry
     Harris-Foulkes estimate   =    -133.98496349 Ry
     estimated scf accuracy    <       0.00018866 Ry

     iteration #  2     ecut=    90.00 Ry     beta=0.20
     Davidson diagonalization with overlap
     ethr =  4.29E-07,  avg # of iterations =  1.0

     total cpu time spent up to now is      310.2 secs

     total energy              =    -133.98490502 Ry
     Harris-Foulkes estimate   =    -133.98493727 Ry
     estimated scf accuracy    <       0.00010008 Ry

     iteration #  3     ecut=    90.00 Ry     beta=0.20
     Davidson diagonalization with overlap
     ethr =  2.27E-07,  avg # of iterations =  2.0

     total cpu time spent up to now is      311.1 secs

     total energy              =    -133.98491463 Ry
     Harris-Foulkes estimate   =    -133.98491923 Ry
     estimated scf accuracy    <       0.00001069 Ry

     iteration #  4     ecut=    90.00 Ry     beta=0.20
     Davidson diagonalization with overlap
     ethr =  2.43E-08,  avg # of iterations =  4.5

     total cpu time spent up to now is      312.1 secs

     total energy              =    -133.98491739 Ry
     Harris-Foulkes estimate   =    -133.98491912 Ry
     estimated scf accuracy    <       0.00000639 Ry

     iteration #  5     ecut=    90.00 Ry     beta=0.20
     Davidson diagonalization with overlap
     ethr =  1.45E-08,  avg # of iterations =  2.7

     total cpu time spent up to now is      312.9 secs

     total energy              =    -133.98491754 Ry
     Harris-Foulkes estimate   =    -133.98491790 Ry
     estimated scf accuracy    <       0.00000085 Ry

     iteration #  6     ecut=    90.00 Ry     beta=0.20
     Davidson diagonalization with overlap
     ethr =  1.94E-09,  avg # of iterations =  3.8

     total cpu time spent up to now is      314.0 secs

     total energy              =    -133.98491792 Ry
     Harris-Foulkes estimate   =    -133.98491794 Ry
     estimated scf accuracy    <       0.00000026 Ry

     iteration #  7     ecut=    90.00 Ry     beta=0.20
     Davidson diagonalization with overlap
     ethr =  5.90E-10,  avg # of iterations =  2.0

     total cpu time spent up to now is      314.7 secs

     total energy              =    -133.98491783 Ry
     Harris-Foulkes estimate   =    -133.98491792 Ry
     estimated scf accuracy    <       0.00000018 Ry

     iteration #  8     ecut=    90.00 Ry     beta=0.20
     Davidson diagonalization with overlap
     ethr =  4.17E-10,  avg # of iterations =  3.8

     total cpu time spent up to now is      315.6 secs

     total energy              =    -133.98491788 Ry
     Harris-Foulkes estimate   =    -133.98491789 Ry
     estimated scf accuracy    <       0.00000002 Ry

     iteration #  9     ecut=    90.00 Ry     beta=0.20
     Davidson diagonalization with overlap
     ethr =  5.33E-11,  avg # of iterations =  3.5

     total cpu time spent up to now is      316.5 secs

     total energy              =    -133.98491789 Ry
     Harris-Foulkes estimate   =    -133.98491789 Ry
     estimated scf accuracy    <          2.1E-09 Ry

     iteration # 10     ecut=    90.00 Ry     beta=0.20
     Davidson diagonalization with overlap
     ethr =  4.81E-12,  avg # of iterations =  4.5

     total cpu time spent up to now is      317.4 secs

     total energy              =    -133.98491789 Ry
     Harris-Foulkes estimate   =    -133.98491789 Ry
     estimated scf accuracy    <          6.7E-10 Ry

     iteration # 11     ecut=    90.00 Ry     beta=0.20
     Davidson diagonalization with overlap
     ethr =  1.52E-12,  avg # of iterations =  2.0

     total cpu time spent up to now is      318.1 secs

     total energy              =    -133.98491789 Ry
     Harris-Foulkes estimate   =    -133.98491789 Ry
     estimated scf accuracy    <          6.4E-10 Ry

     iteration # 12     ecut=    90.00 Ry     beta=0.20
     Davidson diagonalization with overlap
     ethr =  1.47E-12,  avg # of iterations =  3.0

     total cpu time spent up to now is      318.8 secs

     End of self-consistent calculation

          k = 0.0000 0.0000 0.0000 ( 14623 PWs)   bands (ev):

   -17.9848 -17.6519 -15.3638 -15.3638 -11.1435 -11.1042  -8.5481  -8.3854
    -7.2456  -6.7925  -6.7925  -6.3791  -5.6825  -5.6825  -3.5723  -3.5723
    -1.0170  -0.9295  -0.1188   0.3192   0.9157   0.9157

          k = 0.0000 0.0000 0.4005 ( 14687 PWs)   bands (ev):

   -17.8996 -17.6470 -15.3406 -15.3406 -11.6849 -11.4441  -8.7774  -8.0431
    -7.0249  -7.0249  -6.0448  -5.6287  -5.6268  -5.6268  -3.5836  -3.5836
    -1.6600  -1.1065  -0.9221   0.2547   1.1636   1.1636

          k = 0.0000 0.3333 0.0000 ( 14674 PWs)   bands (ev):

   -17.9042 -17.7378 -15.3636 -15.3633 -11.1307 -11.1103  -8.4753  -8.3617
    -7.3104  -6.9182  -6.7794  -6.7623  -5.4028  -5.3413  -3.6848  -3.6828
    -0.7343  -0.6310  -0.3330   0.0279   1.0172   1.0217

          k = 0.0000 0.3333 0.4005 ( 14700 PWs)   bands (ev):

   -17.8358 -17.7092 -15.3464 -15.3456 -11.6192 -11.4974  -8.6305  -8.2642
    -7.0185  -7.0170  -6.1172  -5.9843  -5.4058  -5.3204  -3.6529  -3.6350
    -1.4553  -1.1789  -0.5713   0.0206   1.1145   1.1257

          k = 0.3333 0.3333 0.0000 ( 14745 PWs)   bands (ev):

   -17.8587 -17.7751 -15.3765 -15.3698 -11.1217 -11.1109  -8.5123  -8.4261
    -7.1112  -6.8139  -6.8052  -6.7227  -5.6797  -5.3675  -3.7220  -3.6626
    -0.6268  -0.4192  -0.3631  -0.0188   0.9838   1.0168

          k = 0.3333 0.3333 0.4005 ( 14669 PWs)   bands (ev):

   -17.8003 -17.7367 -15.3528 -15.3521 -11.6046 -11.5412  -8.5052  -8.3152
    -7.0529  -7.0322  -6.0433  -5.8389  -5.6331  -5.3589  -3.6625  -3.6373
    -1.4118  -1.2704  -0.3270  -0.0141   1.0636   1.1429

     highest occupied level (ev):     1.1636

!    total energy              =    -133.98491789 Ry
     Harris-Foulkes estimate   =    -133.98491789 Ry
     estimated scf accuracy    <          5.8E-11 Ry

     The total energy is the sum of the following terms:

     one-electron contribution =     -89.93937659 Ry
     hartree contribution      =      59.48917625 Ry
     xc contribution           =     -39.46860067 Ry
     ewald contribution        =     -64.00006799 Ry
     Dispersion Correction     =      -0.06604889 Ry

     convergence has been achieved in  12 iterations

     Forces acting on atoms (cartesian axes, Ry/au):

     atom    1 type  1   force =     0.00000000    0.00000000    0.00075098
     atom    2 type  1   force =     0.00000000    0.00000000   -0.00075098
     atom    3 type  2   force =     0.00000000    0.00000000    0.00001213
     atom    4 type  2   force =     0.00000000    0.00000000   -0.00001213
     atom    5 type  3   force =    -0.00028540   -0.00028540    0.00002992
     atom    6 type  3   force =     0.00028540    0.00028540    0.00002992
     atom    7 type  3   force =    -0.00028540    0.00028540   -0.00002992
     atom    8 type  3   force =     0.00028540   -0.00028540   -0.00002992
     atom    9 type  4   force =    -0.00062697   -0.00062697   -0.00052861
     atom   10 type  4   force =     0.00062697    0.00062697   -0.00052861
     atom   11 type  4   force =    -0.00062697    0.00062697    0.00052861
     atom   12 type  4   force =     0.00062697   -0.00062697    0.00052861
     atom   13 type  4   force =     0.00022353    0.00022353    0.00014668
     atom   14 type  4   force =    -0.00022353   -0.00022353    0.00014668
     atom   15 type  4   force =     0.00022353   -0.00022353   -0.00014668
     atom   16 type  4   force =    -0.00022353    0.00022353   -0.00014668

     Total force =     0.002556     Total SCF correction =     0.000016

     bfgs converged in  24 scf cycles and  23 bfgs steps
     (criteria: energy <  1.0E-04 Ry, force <  1.0E-03 Ry/Bohr)

     End of BFGS Geometry Optimization

     Final energy   =    -133.9849178876 Ry
Begin final coordinates

ATOMIC_POSITIONS (crystal)
C        0.000000000   0.500000000   0.273328325
C        0.500000000   0.000000000   0.726671650
O        0.000000000   0.500000000   0.570439807
O        0.500000000   0.000000000   0.429560193
N        0.146708563   0.646708511   0.124374907
N        0.853291405   0.353291489   0.124374907
N        0.646708511   0.853291405   0.875625106
N        0.353291489   0.146708563   0.875625106
H        0.259593120   0.759593099   0.231071582
H        0.740406859   0.240406880   0.231071582
H        0.759593099   0.740406859   0.768928393
H        0.240406880   0.259593120   0.768928393
H        0.138143906   0.638143917   0.902468824
H        0.861856083   0.361856083   0.902468824
H        0.638143917   0.861856083   0.097531179
H        0.361856083   0.138143906   0.097531179
End final coordinates



     Writing output data file urea.save
 
     init_run     :      0.68s CPU      0.92s WALL (       1 calls)
     electrons    :    276.56s CPU    299.35s WALL (      24 calls)
     update_pot   :      7.49s CPU      7.84s WALL (      23 calls)
     forces       :      9.94s CPU     10.24s WALL (      24 calls)

     Called by init_run:
     wfcinit      :      0.36s CPU      0.44s WALL (       1 calls)
     potinit      :      0.16s CPU      0.20s WALL (       1 calls)

     Called by electrons:
     c_bands      :    217.21s CPU    234.31s WALL (     336 calls)
     sum_band     :     35.96s CPU     39.57s WALL (     336 calls)
     v_of_rho     :     13.15s CPU     14.21s WALL (     360 calls)
     mix_rho      :      4.67s CPU      5.05s WALL (     336 calls)

     Called by c_bands:
     init_us_2    :      5.17s CPU      5.58s WALL (    4182 calls)
     cegterg      :    211.49s CPU    228.18s WALL (    2016 calls)

     Called by sum_band:

     Called by *egterg:
     h_psi        :    159.98s CPU    173.03s WALL (    8885 calls)
     g_psi        :      1.72s CPU      1.84s WALL (    6863 calls)
     cdiaghg      :      6.68s CPU      7.32s WALL (    8741 calls)

     Called by h_psi:
     h_psi:pot    :    154.73s CPU    167.46s WALL (    8885 calls)
     h_psi:calbec :      3.83s CPU      4.17s WALL (    8885 calls)
     vloc_psi     :    146.06s CPU    158.26s WALL (    8885 calls)
     add_vuspsi   :      4.78s CPU      4.97s WALL (    8885 calls)

     General routines
     calbec       :      4.03s CPU      4.37s WALL (    9461 calls)
     fft          :      5.20s CPU      5.94s WALL (    4007 calls)
     fftw         :    142.49s CPU    154.71s WALL (  294170 calls)
     davcio       :      0.00s CPU      0.00s WALL (       6 calls)
 
     Parallel routines
     fft_scatter  :     43.50s CPU     48.52s WALL (  298177 calls)
 
     PWSCF        :  4m55.34s CPU     5m19.34s WALL

 
   This run was terminated on:  12: 5:41  17Dec2019            

=------------------------------------------------------------------------------=
   JOB DONE.
=------------------------------------------------------------------------------=
