
     Program PWSCF v.6.4.1 starts on 29May2019 at 13:18:27 

     This program is part of the open-source Quantum ESPRESSO suite
     for quantum simulation of materials; please cite
         "P. Giannozzi et al., J. Phys.:Condens. Matter 21 395502 (2009);
         "P. Giannozzi et al., J. Phys.:Condens. Matter 29 465901 (2017);
          URL http://www.quantum-espresso.org", 
     in publications or presentations arising from this work. More details at
     http://www.quantum-espresso.org/quote

     Parallel version (MPI), running on     4 processors

     MPI processes distributed on     1 nodes
     R & G space division:  proc/nbgrp/npool/nimage =       4
     Waiting for input...
     Reading input from standard input

     Current dimensions of program PWSCF are:
     Max number of different atomic species (ntypx) = 10
     Max number of k-points (npk) =  40000
     Max angular momentum in pseudopotentials (lmaxx) =  3
     Message from routine setup:
     the system is metallic, specify occupations

     Subspace diagonalization in iterative solution of the eigenvalue problem:
     a serial algorithm will be used

 
     Parallelization info
     --------------------
     sticks:   dense  smooth     PW     G-vecs:    dense   smooth      PW
     Min        3186    3186    795               270187   270187   33760
     Max        3187    3187    796               270188   270188   33761
     Sum       12745   12745   3181              1080751  1080751  135043
 


     bravais-lattice index     =            1
     lattice parameter (alat)  =      20.0000  a.u.
     unit-cell volume          =    8000.0000 (a.u.)^3
     number of atoms/cell      =            3
     number of atomic types    =            2
     number of electrons       =         7.00 (up:   4.00, down:   3.00)
     number of Kohn-Sham states=            4
     kinetic-energy cutoff     =     100.0000  Ry
     charge density cutoff     =     400.0000  Ry
     convergence threshold     =      1.0E-08
     mixing beta               =       0.7000
     number of iterations used =            8  plain     mixing
     Exchange-correlation      =  SLA  PW   PBX  PBC ( 1  4  3  4 0 0)

     celldm(1)=  20.000000  celldm(2)=   0.000000  celldm(3)=   0.000000
     celldm(4)=   0.000000  celldm(5)=   0.000000  celldm(6)=   0.000000

     crystal axes: (cart. coord. in units of alat)
               a(1) = (   1.000000   0.000000   0.000000 )  
               a(2) = (   0.000000   1.000000   0.000000 )  
               a(3) = (   0.000000   0.000000   1.000000 )  

     reciprocal axes: (cart. coord. in units 2 pi/alat)
               b(1) = (  1.000000  0.000000  0.000000 )  
               b(2) = (  0.000000  1.000000  0.000000 )  
               b(3) = (  0.000000  0.000000  1.000000 )  


     PseudoPot. # 1 for O  read from file:
     ./pseudo/O.pbe-tm-gipaw.UPF
     MD5 check sum: 12b6f10dd62b8d732352127d12073df4
     Pseudo is Norm-conserving, Zval =  6.0
     Generated by new atomic code, or converted to UPF format
     Using radial grid of 1095 points,  1 beta functions with: 
                l(1) =   0

     PseudoPot. # 2 for H  read from file:
     ./pseudo/H.pbe-tm-gipaw.UPF
     MD5 check sum: 39a9a69d8410949353303b9fcad9eee2
     Pseudo is Norm-conserving, Zval =  1.0
     Generated by new atomic code, or converted to UPF format
     Using radial grid of  929 points,  0 beta functions with: 

     atomic species   valence    mass     pseudopotential
        O              6.00    16.00000     O ( 1.00)
        H              1.00     1.00000     H ( 1.00)

     Starting magnetic structure 
     atomic species   magnetization
        O            0.200
        H            0.100

     No symmetry found


                                    s                        frac. trans.

      isym =  1     identity                                     

 cryst.   s( 1) = (     1          0          0      )
                  (     0          1          0      )
                  (     0          0          1      )

 cart.    s( 1) = (  1.0000000  0.0000000  0.0000000 )
                  (  0.0000000  1.0000000  0.0000000 )
                  (  0.0000000  0.0000000  1.0000000 )


     point group C_1 (1)    
     there are  1 classes
     the character table:

       E    
A      1.00

     the symmetry operations in each class and the name of the first element:

     E        1
          identity                                               

   Cartesian axes

     site n.     atom                  positions (alat units)
         1           O   tau(   1) = (   0.4724315   0.4724315   0.4724315  )
         2           H   tau(   2) = (   0.5499883   0.5262346   0.4724315  )
         3           H   tau(   3) = (   0.3948748   0.5262346   0.4724315  )

   Crystallographic axes

     site n.     atom                  positions (cryst. coord.)
         1           O   tau(   1) = (  0.4724315  0.4724315  0.4724315  )
         2           H   tau(   2) = (  0.5499883  0.5262346  0.4724315  )
         3           H   tau(   3) = (  0.3948748  0.5262346  0.4724315  )

     number of k points=     1
                       cart. coord. in units 2pi/alat
        k(    1) = (   0.0000000   0.0000000   0.0000000), wk =   1.0000000

                       cryst. coord.
        k(    1) = (   0.0000000   0.0000000   0.0000000), wk =   1.0000000

     Dense  grid:  1080751 G-vectors     FFT dimensions: ( 128, 128, 128)

     Dynamical RAM for                 wfc:       2.06 MB

     Dynamical RAM for     wfc (w. buffer):       6.18 MB

     Dynamical RAM for           str. fact:       8.25 MB

     Dynamical RAM for           local pot:       0.00 MB

     Dynamical RAM for          nlocal pot:       0.52 MB

     Dynamical RAM for                qrad:       0.10 MB

     Dynamical RAM for          rho,v,vnew:      48.74 MB

     Dynamical RAM for               rhoin:      16.25 MB

     Dynamical RAM for            rho*nmix:     131.93 MB

     Dynamical RAM for           G-vectors:      17.52 MB

     Dynamical RAM for          h,s,v(r/c):       0.01 MB

     Dynamical RAM for          <psi|beta>:       0.00 MB

     Dynamical RAM for                 psi:       8.25 MB

     Dynamical RAM for                hpsi:       8.25 MB

     Dynamical RAM for      wfcinit/wfcrot:       6.18 MB

     Estimated static dynamical RAM per process >     265.84 MB

     Estimated max dynamical RAM per process >     282.34 MB

     Estimated total dynamical RAM >       1.10 GB
     Generating pointlists ...
     new r_m :   0.0389 (alat units)  0.7787 (a.u.) for type    1
     new r_m :   0.0389 (alat units)  0.7787 (a.u.) for type    2

     Initial potential from superposition of free atoms

     starting charge    5.20000, renormalised to    7.00000

     negative rho (up, down):  4.199E-05 2.861E-03
     Starting wfcs are    6 randomized atomic wfcs

     total cpu time spent up to now is        2.5 secs

     Self-consistent Calculation

     iteration #  1     ecut=   100.00 Ry     beta= 0.70
     Davidson diagonalization with overlap
     ethr =  1.00E-04,  avg # of iterations =  4.0

     negative rho (up, down):  7.355E-06 3.859E-02

     total cpu time spent up to now is        6.2 secs

     total energy              =     -32.46376796 Ry
     Harris-Foulkes estimate   =     -34.37729888 Ry
     estimated scf accuracy    <       2.78466763 Ry

     total magnetization       =     1.00 Bohr mag/cell
     absolute magnetization    =     1.11 Bohr mag/cell

     iteration #  2     ecut=   100.00 Ry     beta= 0.70
     Davidson diagonalization with overlap
     ethr =  1.00E-02,  avg # of iterations =  3.0

     negative rho (up, down):  4.112E-06 3.574E-02

     total cpu time spent up to now is        9.6 secs

     total energy              =     -33.39997494 Ry
     Harris-Foulkes estimate   =     -33.99486047 Ry
     estimated scf accuracy    <       1.12071893 Ry

     total magnetization       =     1.00 Bohr mag/cell
     absolute magnetization    =     1.06 Bohr mag/cell

     iteration #  3     ecut=   100.00 Ry     beta= 0.70
     Davidson diagonalization with overlap
     ethr =  1.00E-02,  avg # of iterations =  2.0

     negative rho (up, down):  6.982E-07 1.870E-02

     total cpu time spent up to now is       13.1 secs

     total energy              =     -33.57596610 Ry
     Harris-Foulkes estimate   =     -33.57897046 Ry
     estimated scf accuracy    <       0.01524751 Ry

     total magnetization       =     1.00 Bohr mag/cell
     absolute magnetization    =     1.07 Bohr mag/cell

     iteration #  4     ecut=   100.00 Ry     beta= 0.70
     Davidson diagonalization with overlap
     ethr =  2.18E-04,  avg # of iterations =  2.0

     negative rho (up, down):  2.809E-11 4.435E-05

     total cpu time spent up to now is       16.5 secs

     total energy              =     -33.57916986 Ry
     Harris-Foulkes estimate   =     -33.57904822 Ry
     estimated scf accuracy    <       0.00068322 Ry

     total magnetization       =     1.00 Bohr mag/cell
     absolute magnetization    =     1.07 Bohr mag/cell

     iteration #  5     ecut=   100.00 Ry     beta= 0.70
     Davidson diagonalization with overlap
     ethr =  9.76E-06,  avg # of iterations =  2.0

     negative rho (up, down):  3.713E-10 6.604E-04

     total cpu time spent up to now is       19.6 secs

     total energy              =     -33.57928485 Ry
     Harris-Foulkes estimate   =     -33.57928424 Ry
     estimated scf accuracy    <       0.00002689 Ry

     total magnetization       =     1.00 Bohr mag/cell
     absolute magnetization    =     1.07 Bohr mag/cell

     iteration #  6     ecut=   100.00 Ry     beta= 0.70
     Davidson diagonalization with overlap
     ethr =  3.84E-07,  avg # of iterations =  2.5

     negative rho (up, down):  9.219E-12 1.407E-04

     total cpu time spent up to now is       22.8 secs

     total energy              =     -33.57929501 Ry
     Harris-Foulkes estimate   =     -33.57929502 Ry
     estimated scf accuracy    <       0.00000242 Ry

     total magnetization       =     1.00 Bohr mag/cell
     absolute magnetization    =     1.07 Bohr mag/cell

     iteration #  7     ecut=   100.00 Ry     beta= 0.70
     Davidson diagonalization with overlap
     ethr =  3.46E-08,  avg # of iterations =  2.0

     negative rho (up, down):  1.016E-13 9.537E-06

     total cpu time spent up to now is       25.6 secs

     total energy              =     -33.57929550 Ry
     Harris-Foulkes estimate   =     -33.57929543 Ry
     estimated scf accuracy    <       0.00000009 Ry

     total magnetization       =     1.00 Bohr mag/cell
     absolute magnetization    =     1.07 Bohr mag/cell

     iteration #  8     ecut=   100.00 Ry     beta= 0.70
     Davidson diagonalization with overlap
     ethr =  1.30E-09,  avg # of iterations =  2.5

     negative rho (up, down):  1.607E-14 1.621E-05

     total cpu time spent up to now is       29.2 secs

     total energy              =     -33.57929556 Ry
     Harris-Foulkes estimate   =     -33.57929556 Ry
     estimated scf accuracy    <       0.00000002 Ry

     total magnetization       =     1.00 Bohr mag/cell
     absolute magnetization    =     1.07 Bohr mag/cell

     iteration #  9     ecut=   100.00 Ry     beta= 0.70
     Davidson diagonalization with overlap
     ethr =  2.67E-10,  avg # of iterations =  1.5
 
     Magnetic moment per site:
     atom:    1    charge:    2.0270    magn:    0.3789    constr:    0.0000
     atom:    2    charge:    0.3719    magn:   -0.0068    constr:    0.0000
     atom:    3    charge:    0.3718    magn:   -0.0068    constr:    0.0000

     total cpu time spent up to now is       32.3 secs

     End of self-consistent calculation

 ------ SPIN UP ------------


          k = 0.0000 0.0000 0.0000 (135043 PWs)   bands (ev):

   -34.4538 -21.4987 -18.1858 -17.5009

     occupation numbers 
     1.0000   1.0000   1.0000   1.0000

 ------ SPIN DOWN ----------


          k = 0.0000 0.0000 0.0000 (135043 PWs)   bands (ev):

   -32.7038 -20.9900 -16.8059 -13.7148

     occupation numbers 
     1.0000   1.0000   1.0000   0.0000

     highest occupied, lowest unoccupied level (ev):   -16.8059  -13.7148

!    total energy              =     -33.57929556 Ry
     Harris-Foulkes estimate   =     -33.57929556 Ry
     estimated scf accuracy    <          1.4E-09 Ry

     The total energy is the sum of the following terms:

     one-electron contribution =     -58.41732835 Ry
     hartree contribution      =      28.24386986 Ry
     xc contribution           =      -7.71172386 Ry
     ewald contribution        =       4.30588679 Ry

     total magnetization       =     1.00 Bohr mag/cell
     absolute magnetization    =     1.07 Bohr mag/cell

     convergence has been achieved in   9 iterations

     Writing output data file h2o+.save/
 
     init_run     :      2.14s CPU      2.42s WALL (       1 calls)
     electrons    :     25.98s CPU     29.94s WALL (       1 calls)

     Called by init_run:
     wfcinit      :      0.51s CPU      0.58s WALL (       1 calls)
     wfcinit:atom :      0.01s CPU      0.02s WALL (       2 calls)
     wfcinit:wfcr :      0.48s CPU      0.54s WALL (       2 calls)
     potinit      :      1.10s CPU      1.26s WALL (       1 calls)
     hinit0       :      0.14s CPU      0.19s WALL (       1 calls)

     Called by electrons:
     c_bands      :     10.12s CPU     11.36s WALL (       9 calls)
     sum_band     :      3.62s CPU      4.49s WALL (       9 calls)
     v_of_rho     :      9.76s CPU     11.23s WALL (      10 calls)
     v_h          :      0.62s CPU      0.71s WALL (      10 calls)
     v_xc         :      9.13s CPU     10.52s WALL (      10 calls)
     mix_rho      :      3.07s CPU      3.45s WALL (       9 calls)

     Called by c_bands:
     init_us_2    :      0.14s CPU      0.15s WALL (      38 calls)
     cegterg      :      9.97s CPU     11.20s WALL (      18 calls)

     Called by sum_band:

     Called by *egterg:
     h_psi        :      9.75s CPU     10.97s WALL (      63 calls)
     g_psi        :      0.03s CPU      0.04s WALL (      43 calls)
     cdiaghg      :      0.00s CPU      0.01s WALL (      61 calls)
     cegterg:over :      0.31s CPU      0.35s WALL (      43 calls)
     cegterg:upda :      0.14s CPU      0.14s WALL (      43 calls)
     cegterg:last :      0.05s CPU      0.05s WALL (      20 calls)

     Called by h_psi:
     h_psi:pot    :      9.67s CPU     10.89s WALL (      63 calls)
     h_psi:calbec :      0.07s CPU      0.07s WALL (      63 calls)
     vloc_psi     :      9.57s CPU     10.78s WALL (      63 calls)
     add_vuspsi   :      0.03s CPU      0.04s WALL (      63 calls)

     General routines
     calbec       :      0.07s CPU      0.06s WALL (      63 calls)
     fft          :      8.13s CPU      9.37s WALL (     187 calls)
     ffts         :      0.66s CPU      0.82s WALL (      18 calls)
     fftw         :      9.25s CPU     10.61s WALL (     534 calls)
 
     Parallel routines
     fft_scatt_xy :      2.92s CPU      3.34s WALL (     739 calls)
     fft_scatt_yz :      7.18s CPU      8.49s WALL (     739 calls)
 
     PWSCF        :     28.20s CPU     32.52s WALL

 
   This run was terminated on:  13:19: 0  29May2019            

=------------------------------------------------------------------------------=
   JOB DONE.
=------------------------------------------------------------------------------=
