
     Program PWSCF v.6.beta (svn rev. 12871M) starts on 29Aug2016 at 11:55:36 

     This program is part of the open-source Quantum ESPRESSO suite
     for quantum simulation of materials; please cite
         "P. Giannozzi et al., J. Phys.:Condens. Matter 21 395502 (2009);
          URL http://www.quantum-espresso.org", 
     in publications or presentations arising from this work. More details at
     http://www.quantum-espresso.org/quote
 
           HOST :    @host@
           ARCH :    x86_64
             CC :    icc
            CPP :    cpp
            F90 :    mpif90
            F77 :    ifort
         DFLAGS :    -D__INTEL -D__DFTI -D__MPI -D__PARA -D__SCALAPACK
      BLAS LIBS :    -L/opt/intel/xe2016/mkl/lib/intel64 -lmkl_intel_lp64  -lmkl_sequential -lmkl_core
    LAPACK LIBS :    
       FFT LIBS :    
      MASS LIBS :    

     Parallel version (MPI), running on     4 processors
     R & G space division:  proc/nbgrp/npool/nimage =       4
     Waiting for input...
     Reading input from standard input

     Current dimensions of program PWSCF are:
     Max number of different atomic species (ntypx) = 10
     Max number of k-points (npk) =  40000
     Max angular momentum in pseudopotentials (lmaxx) =  3
     Message from routine setup:
     the system is metallic, specify occupations

     Subspace diagonalization in iterative solution of the eigenvalue problem:
     a serial algorithm will be used

 
     Parallelization info
     --------------------
     sticks:   dense  smooth     PW     G-vecs:    dense   smooth      PW
     Min        3186    3186    795               270187   270187   33760
     Max        3187    3187    796               270188   270188   33761
     Sum       12745   12745   3181              1080751  1080751  135043
 


     bravais-lattice index     =            1
     lattice parameter (alat)  =      20.0000  a.u.
     unit-cell volume          =    8000.0000 (a.u.)^3
     number of atoms/cell      =            3
     number of atomic types    =            2
     number of electrons       =         7.00 (up:   4.00, down:   3.00)
     number of Kohn-Sham states=            4
     kinetic-energy cutoff     =     100.0000  Ry
     charge density cutoff     =     400.0000  Ry
     convergence threshold     =      1.0E-08
     mixing beta               =       0.7000
     number of iterations used =            8  plain     mixing
     Exchange-correlation      =  SLA  PW   PBX  PBC ( 1  4  3  4 0 0)

     celldm(1)=  20.000000  celldm(2)=   0.000000  celldm(3)=   0.000000
     celldm(4)=   0.000000  celldm(5)=   0.000000  celldm(6)=   0.000000

     crystal axes: (cart. coord. in units of alat)
               a(1) = (   1.000000   0.000000   0.000000 )  
               a(2) = (   0.000000   1.000000   0.000000 )  
               a(3) = (   0.000000   0.000000   1.000000 )  

     reciprocal axes: (cart. coord. in units 2 pi/alat)
               b(1) = (  1.000000  0.000000  0.000000 )  
               b(2) = (  0.000000  1.000000  0.000000 )  
               b(3) = (  0.000000  0.000000  1.000000 )  


     PseudoPot. # 1 for O  read from file:
     ./pseudo/O.pbe-tm-gipaw.UPF
     MD5 check sum: 12b6f10dd62b8d732352127d12073df4
     Pseudo is Norm-conserving, Zval =  6.0
     Generated by new atomic code, or converted to UPF format
     Using radial grid of 1095 points,  1 beta functions with: 
                l(1) =   0

     PseudoPot. # 2 for H  read from file:
     ./pseudo/H.pbe-tm-gipaw.UPF
     MD5 check sum: 39a9a69d8410949353303b9fcad9eee2
     Pseudo is Norm-conserving, Zval =  1.0
     Generated by new atomic code, or converted to UPF format
     Using radial grid of  929 points,  0 beta functions with: 

     atomic species   valence    mass     pseudopotential
        O              6.00    16.00000     O ( 1.00)
        H              1.00     1.00000     H ( 1.00)

     Starting magnetic structure 
     atomic species   magnetization
        O            0.200
        H            0.100

     No symmetry found


                                    s                        frac. trans.

      isym =  1     identity                                     

 cryst.   s( 1) = (     1          0          0      )
                  (     0          1          0      )
                  (     0          0          1      )

 cart.    s( 1) = (  1.0000000  0.0000000  0.0000000 )
                  (  0.0000000  1.0000000  0.0000000 )
                  (  0.0000000  0.0000000  1.0000000 )


     point group C_1 (1)    
     there are  1 classes
     the character table:

       E    
A      1.00

     the symmetry operations in each class and the name of the first element:

     E        1
          identity                                               

   Cartesian axes

     site n.     atom                  positions (alat units)
         1           O   tau(   1) = (   0.4724315   0.4724315   0.4724315  )
         2           H   tau(   2) = (   0.5499883   0.5262346   0.4724315  )
         3           H   tau(   3) = (   0.3948748   0.5262346   0.4724315  )

   Crystallographic axes

     site n.     atom                  positions (cryst. coord.)
         1           O   tau(   1) = (  0.4724315  0.4724315  0.4724315  )
         2           H   tau(   2) = (  0.5499883  0.5262346  0.4724315  )
         3           H   tau(   3) = (  0.3948748  0.5262346  0.4724315  )

     number of k points=     1
                       cart. coord. in units 2pi/alat
        k(    1) = (   0.0000000   0.0000000   0.0000000), wk =   1.0000000

                       cryst. coord.
        k(    1) = (   0.0000000   0.0000000   0.0000000), wk =   1.0000000

     Dense  grid:  1080751 G-vectors     FFT dimensions: ( 128, 128, 128)

     Estimated max dynamical RAM per process >     265.75Mb

     Estimated total allocated dynamical RAM >    1063.01Mb
     Generating pointlists ...
     new r_m :   0.0389 (alat units)  0.7787 (a.u.) for type    1
     new r_m :   0.0389 (alat units)  0.7787 (a.u.) for type    2

     Initial potential from superposition of free atoms

     starting charge    5.20000, renormalised to    7.00000

     negative rho (up, down):  2.532E-05 1.668E-05
     Starting wfc are    6 randomized atomic wfcs

     total cpu time spent up to now is        2.5 secs

     per-process dynamical memory:   160.0 Mb

     Self-consistent Calculation

     iteration #  1     ecut=   100.00 Ry     beta=0.70
     Davidson diagonalization with overlap
     ethr =  1.00E-04,  avg # of iterations =  4.0

     negative rho (up, down):  4.647E-06 2.927E-06

     total cpu time spent up to now is        5.5 secs

     total energy              =     -32.46375651 Ry
     Harris-Foulkes estimate   =     -34.37729007 Ry
     estimated scf accuracy    <       2.78467078 Ry

     total magnetization       =     1.00 Bohr mag/cell
     absolute magnetization    =     1.11 Bohr mag/cell

     iteration #  2     ecut=   100.00 Ry     beta=0.70
     Davidson diagonalization with overlap
     ethr =  1.00E-02,  avg # of iterations =  3.0

     negative rho (up, down):  2.602E-06 1.626E-06

     total cpu time spent up to now is        8.2 secs

     total energy              =     -33.39996437 Ry
     Harris-Foulkes estimate   =     -33.99485025 Ry
     estimated scf accuracy    <       1.12071937 Ry

     total magnetization       =     1.00 Bohr mag/cell
     absolute magnetization    =     1.06 Bohr mag/cell

     iteration #  3     ecut=   100.00 Ry     beta=0.70
     Davidson diagonalization with overlap
     ethr =  1.00E-02,  avg # of iterations =  2.0

     negative rho (up, down):  4.339E-07 2.624E-07

     total cpu time spent up to now is       10.7 secs

     total energy              =     -33.57595559 Ry
     Harris-Foulkes estimate   =     -33.57895998 Ry
     estimated scf accuracy    <       0.01524750 Ry

     total magnetization       =     1.00 Bohr mag/cell
     absolute magnetization    =     1.07 Bohr mag/cell

     iteration #  4     ecut=   100.00 Ry     beta=0.70
     Davidson diagonalization with overlap
     ethr =  2.18E-04,  avg # of iterations =  2.0

     total cpu time spent up to now is       13.2 secs

     total energy              =     -33.57915933 Ry
     Harris-Foulkes estimate   =     -33.57903770 Ry
     estimated scf accuracy    <       0.00068322 Ry

     total magnetization       =     1.00 Bohr mag/cell
     absolute magnetization    =     1.07 Bohr mag/cell

     iteration #  5     ecut=   100.00 Ry     beta=0.70
     Davidson diagonalization with overlap
     ethr =  9.76E-06,  avg # of iterations =  2.0

     total cpu time spent up to now is       15.7 secs

     total energy              =     -33.57927433 Ry
     Harris-Foulkes estimate   =     -33.57927371 Ry
     estimated scf accuracy    <       0.00002689 Ry

     total magnetization       =     1.00 Bohr mag/cell
     absolute magnetization    =     1.07 Bohr mag/cell

     iteration #  6     ecut=   100.00 Ry     beta=0.70
     Davidson diagonalization with overlap
     ethr =  3.84E-07,  avg # of iterations =  2.5

     total cpu time spent up to now is       18.4 secs

     total energy              =     -33.57928448 Ry
     Harris-Foulkes estimate   =     -33.57928449 Ry
     estimated scf accuracy    <       0.00000242 Ry

     total magnetization       =     1.00 Bohr mag/cell
     absolute magnetization    =     1.07 Bohr mag/cell

     iteration #  7     ecut=   100.00 Ry     beta=0.70
     Davidson diagonalization with overlap
     ethr =  3.46E-08,  avg # of iterations =  2.0

     total cpu time spent up to now is       21.0 secs

     total energy              =     -33.57928498 Ry
     Harris-Foulkes estimate   =     -33.57928490 Ry
     estimated scf accuracy    <       0.00000009 Ry

     total magnetization       =     1.00 Bohr mag/cell
     absolute magnetization    =     1.07 Bohr mag/cell

     iteration #  8     ecut=   100.00 Ry     beta=0.70
     Davidson diagonalization with overlap
     ethr =  1.30E-09,  avg # of iterations =  2.5

     total cpu time spent up to now is       23.8 secs

     total energy              =     -33.57928503 Ry
     Harris-Foulkes estimate   =     -33.57928503 Ry
     estimated scf accuracy    <       0.00000002 Ry

     total magnetization       =     1.00 Bohr mag/cell
     absolute magnetization    =     1.07 Bohr mag/cell

     iteration #  9     ecut=   100.00 Ry     beta=0.70
     Davidson diagonalization with overlap
     ethr =  2.67E-10,  avg # of iterations =  1.5
 
     Magnetic moment per site:
     atom:    1    charge:    2.0270    magn:    0.3789    constr:    0.0000
     atom:    2    charge:    0.3719    magn:   -0.0068    constr:    0.0000
     atom:    3    charge:    0.3718    magn:   -0.0068    constr:    0.0000

     total cpu time spent up to now is       25.8 secs

     End of self-consistent calculation

 ------ SPIN UP ------------


          k = 0.0000 0.0000 0.0000 (135043 PWs)   bands (ev):

   -34.4538 -21.4986 -18.1858 -17.5009

     occupation numbers 
     1.0000   1.0000   1.0000   1.0000

 ------ SPIN DOWN ----------


          k = 0.0000 0.0000 0.0000 (135043 PWs)   bands (ev):

   -32.7037 -20.9899 -16.8059 -13.7148

     occupation numbers 
     1.0000   1.0000   1.0000   0.0000

     highest occupied level (ev):   -16.8059

!    total energy              =     -33.57928503 Ry
     Harris-Foulkes estimate   =     -33.57928503 Ry
     estimated scf accuracy    <          1.4E-09 Ry

     The total energy is the sum of the following terms:

     one-electron contribution =     -58.41732589 Ry
     hartree contribution      =      28.24386649 Ry
     xc contribution           =      -7.71171243 Ry
     ewald contribution        =       4.30588679 Ry

     total magnetization       =     1.00 Bohr mag/cell
     absolute magnetization    =     1.07 Bohr mag/cell

     convergence has been achieved in   9 iterations

     Writing output data file h2o+.save
 
     init_run     :      2.41s CPU      2.49s WALL (       1 calls)
     electrons    :     23.40s CPU     23.52s WALL (       1 calls)

     Called by init_run:
     wfcinit      :      0.46s CPU      0.46s WALL (       1 calls)
     potinit      :      1.24s CPU      1.27s WALL (       1 calls)

     Called by electrons:
     c_bands      :      8.16s CPU      8.18s WALL (       9 calls)
     sum_band     :      2.92s CPU      2.93s WALL (       9 calls)
     v_of_rho     :      9.74s CPU      9.77s WALL (      10 calls)
     v_h          :      0.54s CPU      0.54s WALL (      10 calls)
     v_xc         :      9.20s CPU      9.24s WALL (      10 calls)
     mix_rho      :      3.04s CPU      3.09s WALL (       9 calls)

     Called by c_bands:
     init_us_2    :      0.19s CPU      0.18s WALL (      38 calls)
     cegterg      :      8.04s CPU      8.05s WALL (      18 calls)

     Called by sum_band:

     Called by *egterg:
     h_psi        :      7.78s CPU      7.78s WALL (      63 calls)
     g_psi        :      0.06s CPU      0.05s WALL (      43 calls)
     cdiaghg      :      0.00s CPU      0.01s WALL (      61 calls)
     cegterg:over :      0.14s CPU      0.14s WALL (      43 calls)
     cegterg:upda :      0.17s CPU      0.17s WALL (      43 calls)
     cegterg:last :      0.08s CPU      0.09s WALL (      20 calls)

     Called by h_psi:
     h_psi:pot    :      7.65s CPU      7.67s WALL (      63 calls)
     h_psi:calbec :      0.05s CPU      0.04s WALL (      63 calls)
     add_vuspsi   :      0.04s CPU      0.05s WALL (      63 calls)

     General routines
     calbec       :      0.05s CPU      0.04s WALL (      63 calls)
     fft          :      7.37s CPU      7.40s WALL (     207 calls)
     fftw         :      7.48s CPU      7.57s WALL (     534 calls)
     davcio       :      0.00s CPU      0.00s WALL (       2 calls)
 
     Parallel routines
     fft_scatter  :      8.31s CPU      8.31s WALL (     741 calls)
 
     PWSCF        :    26.10s CPU        26.34s WALL

 
   This run was terminated on:  11:56: 2  29Aug2016            

=------------------------------------------------------------------------------=
   JOB DONE.
=------------------------------------------------------------------------------=
