
     Program PWSCF v.4.3        starts on 15Apr2011 at 11:22:23 

     This program is part of the open-source Quantum ESPRESSO suite
     for quantum simulation of materials; please cite
         "P. Giannozzi et al., J. Phys.:Condens. Matter 21 395502 (2009);
          URL http://www.quantum-espresso.org", 
     in publications or presentations arising from this work. More details at
     http://www.quantum-espresso.org/wiki/index.php/Citing_Quantum-ESPRESSO

     Current dimensions of program PWSCF are:
     Max number of different atomic species (ntypx) = 10
     Max number of k-points (npk) =  40000
     Max angular momentum in pseudopotentials (lmaxx) =  3
     Waiting for input...
     Message from routine setup:
     the system is metallic, specify occupations
     warning: symmetry operation #  3 not allowed.   fractional translation:
       0.0551369  0.0000000  0.0551369  in crystal coordinates
     warning: symmetry operation # 26 not allowed.   fractional translation:
       0.0000000  0.0000000  0.0551369  in crystal coordinates
     warning: symmetry operation # 28 not allowed.   fractional translation:
       0.0551369  0.0000000  0.0000000  in crystal coordinates
 
   Stick Mesh
   ----------
   nst = 12745,  nstw =  3181, nsts = 12745
               n.st   n.stw   n.sts    n.g    n.gw   n.gs
   min       12745    3181   12745 1080751  135043 1080751
   max       12745    3181   12745 1080751  135043 1080751
      12745    3181   12745 1080751  135043 1080751
 


     bravais-lattice index     =            1
     lattice parameter (a_0)   =      20.0000  a.u.
     unit-cell volume          =    8000.0000 (a.u.)^3
     number of atoms/cell      =            3
     number of atomic types    =            2
     number of electrons       =         7.00 (up:   4.00, down:   3.00)
     number of Kohn-Sham states=            4
     kinetic-energy cutoff     =     100.0000  Ry
     charge density cutoff     =     400.0000  Ry
     convergence threshold     =      1.0E-08
     mixing beta               =       0.7000
     number of iterations used =            8  plain     mixing
     Exchange-correlation      =  SLA  PW   PBX  PBC (1434)
     EXX-fraction              =        0.00

     celldm(1)=  20.000000  celldm(2)=   0.000000  celldm(3)=   0.000000
     celldm(4)=   0.000000  celldm(5)=   0.000000  celldm(6)=   0.000000

     crystal axes: (cart. coord. in units of a_0)
               a(1) = (   1.000000   0.000000   0.000000 )  
               a(2) = (   0.000000   1.000000   0.000000 )  
               a(3) = (   0.000000   0.000000   1.000000 )  

     reciprocal axes: (cart. coord. in units 2 pi/a_0)
               b(1) = (  1.000000  0.000000  0.000000 )  
               b(2) = (  0.000000  1.000000  0.000000 )  
               b(3) = (  0.000000  0.000000  1.000000 )  


     PseudoPot. # 1 for O  read from file O.pbe-tm-gipaw.UPF
     MD5 check sum: 12b6f10dd62b8d732352127d12073df4
     Pseudo is Norm-conserving, Zval =  6.0
     Generated by new atomic code, or converted to UPF format
     Using radial grid of 1095 points,  1 beta functions with: 
                l(1) =   0

     PseudoPot. # 2 for H  read from file H.pbe-tm-gipaw.UPF
     MD5 check sum: 39a9a69d8410949353303b9fcad9eee2
     Pseudo is Norm-conserving, Zval =  1.0
     Generated by new atomic code, or converted to UPF format
     Using radial grid of  929 points,  0 beta functions with: 

     atomic species   valence    mass     pseudopotential
        O              6.00    16.00000     O ( 1.00)
        H              1.00     1.00000     H ( 1.00)

     Starting magnetic structure 
     atomic species   magnetization
        O            0.200
        H            0.100

     No symmetry found
                                    s                        frac. trans.

      isym =  1     identity                                     

 cryst.   s( 1) = (     1          0          0      )    f =(  0.0000000 )
                  (     0          1          0      )       (  0.0000000 )
                  (     0          0          1      )       (  0.0000000 )

 cart.    s( 1) = (  1.0000000  0.0000000  0.0000000 )    f =(  0.0000000 )
                  (  0.0000000  1.0000000  0.0000000 )       (  0.0000000 )
                  (  0.0000000  0.0000000  1.0000000 )       (  0.0000000 )


     point group C_1 (1)    
     there are  1 classes
     the character table:

       E    
A      1.00

     the symmetry operations in each class:
     E        1

   Cartesian axes

     site n.     atom                  positions (a_0 units)
         1           O   tau(  1) = (   0.4724315   0.4724315   0.4724315  )
         2           H   tau(  2) = (   0.5499883   0.5262346   0.4724315  )
         3           H   tau(  3) = (   0.3948748   0.5262346   0.4724315  )

   Crystallographic axes

     site n.     atom                  positions (cryst. coord.)
         1           O   tau(  1) = (  0.4724315  0.4724315  0.4724315  )
         2           H   tau(  2) = (  0.5499883  0.5262346  0.4724315  )
         3           H   tau(  3) = (  0.3948748  0.5262346  0.4724315  )

     number of k points=     2
                       cart. coord. in units 2pi/a_0
        k(    1) = (   0.0000000   0.0000000   0.0000000), wk =   1.0000000
        k(    2) = (   0.0000000   0.0000000   0.0000000), wk =   1.0000000

                       cryst. coord.
        k(    1) = (   0.0000000   0.0000000   0.0000000), wk =   1.0000000
        k(    2) = (   0.0000000   0.0000000   0.0000000), wk =   1.0000000

     G cutoff = 4052.8473  (1080751 G-vectors)     FFT grid: (128,128,128)

     Largest allocated arrays     est. size (Mb)     dimensions
        Kohn-Sham Wavefunctions         8.24 Mb     ( 135043,   4)
        NL pseudopotentials             2.06 Mb     ( 135043,   1)
        Each V/rho on FFT grid         64.00 Mb     (2097152,   2)
        Each G-vector array             8.25 Mb     (1080751)
        G-vector shells                 0.03 Mb     (   3380)
     Largest temporary arrays     est. size (Mb)     dimensions
        Auxiliary wavefunctions        32.97 Mb     ( 135043,  16)
        Each subspace H/S matrix        0.00 Mb     (     16,  16)
        Each <psi_i|beta_j> matrix      0.00 Mb     (      1,   4)
        Arrays for rho mixing         256.00 Mb     (2097152,   8)

     Initial potential from superposition of free atoms

     starting charge    5.20000, renormalised to    7.00000

     negative rho (up, down):  0.253E-04 0.167E-04
     Starting wfc are    6 atomic wfcs

     total cpu time spent up to now is     15.17 secs

     per-process dynamical memory:   478.9 Mb

     Self-consistent Calculation

     iteration #  1     ecut=   100.00 Ry     beta=0.70
     Davidson diagonalization with overlap
     ethr =  1.00E-04,  avg # of iterations =  4.0

     negative rho (up, down):  0.474E-05 0.305E-05

     total cpu time spent up to now is     45.56 secs

     total energy              =     -32.46209297 Ry
     Harris-Foulkes estimate   =     -34.37731806 Ry
     estimated scf accuracy    <       2.78687789 Ry

     total magnetization       =     1.00 Bohr mag/cell
     absolute magnetization    =     1.11 Bohr mag/cell

     iteration #  2     ecut=   100.00 Ry     beta=0.70
     Davidson diagonalization with overlap
     ethr =  1.00E-02,  avg # of iterations =  3.0

     negative rho (up, down):  0.267E-05 0.172E-05

     total cpu time spent up to now is     70.10 secs

     total energy              =     -33.39979836 Ry
     Harris-Foulkes estimate   =     -33.99570745 Ry
     estimated scf accuracy    <       1.12267419 Ry

     total magnetization       =     1.00 Bohr mag/cell
     absolute magnetization    =     1.06 Bohr mag/cell

     iteration #  3     ecut=   100.00 Ry     beta=0.70
     Davidson diagonalization with overlap
     ethr =  1.00E-02,  avg # of iterations =  2.0

     negative rho (up, down):  0.468E-06 0.304E-06

     total cpu time spent up to now is     92.46 secs

     total energy              =     -33.57594056 Ry
     Harris-Foulkes estimate   =     -33.57899453 Ry
     estimated scf accuracy    <       0.01534815 Ry

     total magnetization       =     1.00 Bohr mag/cell
     absolute magnetization    =     1.07 Bohr mag/cell

     iteration #  4     ecut=   100.00 Ry     beta=0.70
     Davidson diagonalization with overlap
     ethr =  2.19E-04,  avg # of iterations =  2.0

     total cpu time spent up to now is    115.69 secs

     total energy              =     -33.57915949 Ry
     Harris-Foulkes estimate   =     -33.57903512 Ry
     estimated scf accuracy    <       0.00068452 Ry

     total magnetization       =     1.00 Bohr mag/cell
     absolute magnetization    =     1.07 Bohr mag/cell

     iteration #  5     ecut=   100.00 Ry     beta=0.70
     Davidson diagonalization with overlap
     ethr =  9.78E-06,  avg # of iterations =  2.0

     total cpu time spent up to now is    138.53 secs

     total energy              =     -33.57927277 Ry
     Harris-Foulkes estimate   =     -33.57927324 Ry
     estimated scf accuracy    <       0.00002782 Ry

     total magnetization       =     1.00 Bohr mag/cell
     absolute magnetization    =     1.07 Bohr mag/cell

     iteration #  6     ecut=   100.00 Ry     beta=0.70
     Davidson diagonalization with overlap
     ethr =  3.97E-07,  avg # of iterations =  2.5

     total cpu time spent up to now is    162.51 secs

     total energy              =     -33.57928437 Ry
     Harris-Foulkes estimate   =     -33.57928460 Ry
     estimated scf accuracy    <       0.00000303 Ry

     total magnetization       =     1.00 Bohr mag/cell
     absolute magnetization    =     1.07 Bohr mag/cell

     iteration #  7     ecut=   100.00 Ry     beta=0.70
     Davidson diagonalization with overlap
     ethr =  4.33E-08,  avg # of iterations =  2.0

     total cpu time spent up to now is    185.83 secs

     total energy              =     -33.57928498 Ry
     Harris-Foulkes estimate   =     -33.57928492 Ry
     estimated scf accuracy    <       0.00000009 Ry

     total magnetization       =     1.00 Bohr mag/cell
     absolute magnetization    =     1.07 Bohr mag/cell

     iteration #  8     ecut=   100.00 Ry     beta=0.70
     Davidson diagonalization with overlap
     ethr =  1.22E-09,  avg # of iterations =  2.5

     total cpu time spent up to now is    210.90 secs

     total energy              =     -33.57928503 Ry
     Harris-Foulkes estimate   =     -33.57928504 Ry
     estimated scf accuracy    <       0.00000002 Ry

     total magnetization       =     1.00 Bohr mag/cell
     absolute magnetization    =     1.07 Bohr mag/cell

     iteration #  9     ecut=   100.00 Ry     beta=0.70
     Davidson diagonalization with overlap
     ethr =  3.03E-10,  avg # of iterations =  1.5

     total cpu time spent up to now is    231.98 secs

     End of self-consistent calculation

 ------ SPIN UP ------------


          k = 0.0000 0.0000 0.0000 (135043 PWs)   bands (ev):

   -34.4538 -21.4986 -18.1858 -17.5009

     occupation numbers 
     1.0000   1.0000   1.0000   1.0000

 ------ SPIN DOWN ----------


          k = 0.0000 0.0000 0.0000 (135043 PWs)   bands (ev):

   -32.7038 -20.9899 -16.8059 -13.7148

     occupation numbers 
     1.0000   1.0000   1.0000   0.0000

!    total energy              =     -33.57928503 Ry
     Harris-Foulkes estimate   =     -33.57928503 Ry
     estimated scf accuracy    <          1.3E-09 Ry

     The total energy is the sum of the following terms:

     one-electron contribution =     -58.41733614 Ry
     hartree contribution      =      28.24387951 Ry
     xc contribution           =      -7.71171520 Ry
     ewald contribution        =       4.30588679 Ry

     total magnetization       =     1.00 Bohr mag/cell
     absolute magnetization    =     1.07 Bohr mag/cell

     convergence has been achieved in   9 iterations

     Writing output data file h2o+.save
 
     init_run     :     14.16s CPU     14.94s WALL (       1 calls)
     electrons    :    209.95s CPU    216.81s WALL (       1 calls)

     Called by init_run:
     wfcinit      :      4.96s CPU      5.18s WALL (       1 calls)
     potinit      :      8.18s CPU      8.65s WALL (       1 calls)

     Called by electrons:
     c_bands      :     93.98s CPU     95.69s WALL (       9 calls)
     sum_band     :     25.44s CPU     25.73s WALL (       9 calls)
     v_of_rho     :     79.57s CPU     83.07s WALL (      10 calls)
     v_h          :      4.47s CPU      4.72s WALL (      10 calls)
     v_xc         :     75.10s CPU     78.35s WALL (      10 calls)
     mix_rho      :     13.41s CPU     14.42s WALL (       9 calls)

     Called by c_bands:
     init_us_2    :      1.15s CPU      1.15s WALL (      38 calls)
     cegterg      :     93.35s CPU     94.81s WALL (      18 calls)

     Called by sum_band:

     Called by *egterg:
     h_psi        :     94.10s CPU     94.87s WALL (      63 calls)
     g_psi        :      0.62s CPU      0.57s WALL (      43 calls)
     cdiaghg      :      0.06s CPU      0.08s WALL (      61 calls)
     cegterg:over :      1.07s CPU      1.09s WALL (      43 calls)
     cegterg:upda :      0.96s CPU      1.01s WALL (      43 calls)
     cegterg:last :      0.44s CPU      0.44s WALL (      20 calls)

     Called by h_psi:
     h_psi:vloc   :     93.39s CPU     94.08s WALL (      63 calls)
     h_psi:vnl    :      0.36s CPU      0.43s WALL (      63 calls)
     add_vuspsi   :      0.22s CPU      0.21s WALL (      63 calls)

     General routines
     calbec       :      0.14s CPU      0.22s WALL (      63 calls)
     fft          :     72.03s CPU     72.73s WALL (     207 calls)
     fftw         :     99.85s CPU    100.64s WALL (     536 calls)
     davcio       :      0.03s CPU      0.40s WALL (      56 calls)
 
 
     PWSCF        :  3m44.59s CPU     3m52.49s WALL

 
   This run was terminated on:  11:26:16  15Apr2011            

=------------------------------------------------------------------------------=
   JOB DONE.
=------------------------------------------------------------------------------=
