
     Program PWSCF v.6.5 starts on 17Dec2019 at 12:29:46 

     This program is part of the open-source Quantum ESPRESSO suite
     for quantum simulation of materials; please cite
         "P. Giannozzi et al., J. Phys.:Condens. Matter 21 395502 (2009);
         "P. Giannozzi et al., J. Phys.:Condens. Matter 29 465901 (2017);
          URL http://www.quantum-espresso.org", 
     in publications or presentations arising from this work. More details at
     http://www.quantum-espresso.org/quote

     Parallel version (MPI), running on     4 processors

     MPI processes distributed on     1 nodes
     R & G space division:  proc/nbgrp/npool/nimage =       4
     Waiting for input...
     Reading input from standard input

     Current dimensions of program PWSCF are:
     Max number of different atomic species (ntypx) = 10
     Max number of k-points (npk) =  40000
     Max angular momentum in pseudopotentials (lmaxx) =  3

     -------------------------------------------------
     Parameters for Dispersion (Grimme-D2) Correction:
     -------------------------------------------------
       atom      VdW radius       C_6     

        C          2.744         60.710
        O          2.536         24.284
        N          2.640         42.670
        H          1.892          4.857

     Subspace diagonalization in iterative solution of the eigenvalue problem:
     one sub-group per band group will be used
     scalapack distributed-memory algorithm (size of sub-group:  2*  2 procs)

     Message from routine setup:
     using ibrav=0 with symmetry is DISCOURAGED, use correct ibrav instead
 
     Parallelization info
     --------------------
     sticks:   dense  smooth     PW     G-vecs:    dense   smooth      PW
     Min         822     822    220                29358    29358    4119
     Max         823     823    222                29361    29361    4120
     Sum        3289    3289    885               117437   117437   16479
 


     bravais-lattice index     =            0
     lattice parameter (alat)  =      10.6977  a.u.
     unit-cell volume          =    1019.0328 (a.u.)^3
     number of atoms/cell      =           16
     number of atomic types    =            4
     number of electrons       =        44.00
     number of Kohn-Sham states=           22
     kinetic-energy cutoff     =      90.0000  Ry
     charge density cutoff     =     360.0000  Ry
     convergence threshold     =      1.0E-08
     mixing beta               =       0.2000
     number of iterations used =            8  plain     mixing
     Exchange-correlation=  SLA  PW   PBX  PBC
                           (   1   4   3   4   0   0   0)
     nstep                     =           50


     celldm(1)=  10.697739  celldm(2)=   0.000000  celldm(3)=   0.000000
     celldm(4)=   0.000000  celldm(5)=   0.000000  celldm(6)=   0.000000

     crystal axes: (cart. coord. in units of alat)
               a(1) = (   1.000000   0.000000   0.000000 )  
               a(2) = (   0.000000   1.000000   0.000000 )  
               a(3) = (   0.000000   0.000000   0.832362 )  

     reciprocal axes: (cart. coord. in units 2 pi/alat)
               b(1) = (  1.000000  0.000000  0.000000 )  
               b(2) = (  0.000000  1.000000  0.000000 )  
               b(3) = (  0.000000  0.000000  1.201401 )  


     PseudoPot. # 1 for C  read from file:
     ./pseudo/C.pbe-tm-gipaw.UPF
     MD5 check sum: 6e4a9b9bc4429ee737bc22471ffa2923
     Pseudo is Norm-conserving, Zval =  4.0
     Generated by new atomic code, or converted to UPF format
     Using radial grid of 1073 points,  1 beta functions with: 
                l(1) =   0

     PseudoPot. # 2 for C  read from file:
     ./pseudo/C.pbe-tm-gipaw.UPF
     MD5 check sum: 6e4a9b9bc4429ee737bc22471ffa2923
     Pseudo is Norm-conserving, Zval =  4.0
     Generated by new atomic code, or converted to UPF format
     Using radial grid of 1073 points,  1 beta functions with: 
                l(1) =   0

     PseudoPot. # 3 for N  read from file:
     ./pseudo/N.pbe-tm-gipaw.UPF
     MD5 check sum: df8943e789315a92e2ce8ab49e62f5cb
     Pseudo is Norm-conserving, Zval =  5.0
     Generated by new atomic code, or converted to UPF format
     Using radial grid of 1085 points,  1 beta functions with: 
                l(1) =   0

     PseudoPot. # 4 for H  read from file:
     ./pseudo/H.pbe-tm-gipaw.UPF
     MD5 check sum: 39a9a69d8410949353303b9fcad9eee2
     Pseudo is Norm-conserving, Zval =  1.0
     Generated by new atomic code, or converted to UPF format
     Using radial grid of  929 points,  0 beta functions with: 

     atomic species   valence    mass     pseudopotential
        C              4.00    12.00000     C ( 1.00)
        O              4.00    15.99900     C ( 1.00)
        N              5.00    14.00700     N ( 1.00)
        H              1.00     2.00000     H ( 1.00)

      8 Sym. Ops. (no inversion) found ( 4 have fractional translation)



   Cartesian axes

     site n.     atom                  positions (alat units)
         1           C   tau(   1) = (   0.0000000   0.5000000   0.2771765  )
         2           C   tau(   2) = (   0.5000000   0.0000000   0.5551853  )
         3           O   tau(   3) = (   0.0000000   0.5000000   0.4967535  )
         4           O   tau(   4) = (   0.5000000   0.0000000   0.3356083  )
         5           N   tau(   5) = (   0.1439000   0.6439000   0.1524887  )
         6           N   tau(   6) = (   0.8561000   0.3561000   0.1524887  )
         7           N   tau(   7) = (   0.6439000   0.8561000   0.6798731  )
         8           N   tau(   8) = (   0.3561000   0.1439000   0.6798731  )
         9           H   tau(   9) = (   0.2522000   0.7522000   0.2363075  )
        10           H   tau(  10) = (   0.7478000   0.2478000   0.2363075  )
        11           H   tau(  11) = (   0.7522000   0.7478000   0.5960543  )
        12           H   tau(  12) = (   0.2478000   0.2522000   0.5960543  )
        13           H   tau(  13) = (   0.1365000   0.6365000   0.8093886  )
        14           H   tau(  14) = (   0.8635000   0.3635000   0.8093886  )
        15           H   tau(  15) = (   0.6365000   0.8635000   0.0229732  )
        16           H   tau(  16) = (   0.3635000   0.1365000   0.0229732  )

     number of k points=     6
                       cart. coord. in units 2pi/alat
        k(    1) = (   0.0000000   0.0000000   0.0000000), wk =   0.0740741
        k(    2) = (   0.0000000   0.0000000   0.4004669), wk =   0.1481481
        k(    3) = (   0.0000000   0.3333333   0.0000000), wk =   0.2962963
        k(    4) = (   0.0000000   0.3333333   0.4004669), wk =   0.5925926
        k(    5) = (   0.3333333   0.3333333   0.0000000), wk =   0.2962963
        k(    6) = (   0.3333333   0.3333333   0.4004669), wk =   0.5925926

     Dense  grid:   117437 G-vectors     FFT dimensions: (  72,  72,  54)

     Estimated max dynamical RAM per process >      39.01 MB

     Estimated total dynamical RAM >     156.05 MB

     Initial potential from superposition of free atoms

     starting charge   36.79980, renormalised to   44.00000
     Starting wfcs are   40 randomized atomic wfcs

     total cpu time spent up to now is        1.0 secs

     Self-consistent Calculation

     iteration #  1     ecut=    90.00 Ry     beta= 0.20
     Davidson diagonalization with overlap
     ethr =  1.00E-04,  avg # of iterations =  7.0

     total cpu time spent up to now is        3.1 secs

     total energy              =    -134.38321030 Ry
     Harris-Foulkes estimate   =    -136.58252889 Ry
     estimated scf accuracy    <       7.96623409 Ry

     iteration #  2     ecut=    90.00 Ry     beta= 0.20
     Davidson diagonalization with overlap
     ethr =  1.00E-02,  avg # of iterations =  2.0

     total cpu time spent up to now is        4.0 secs

     total energy              =    -133.47017221 Ry
     Harris-Foulkes estimate   =    -134.72190785 Ry
     estimated scf accuracy    <       2.56853597 Ry

     iteration #  3     ecut=    90.00 Ry     beta= 0.20
     Davidson diagonalization with overlap
     ethr =  5.84E-03,  avg # of iterations =  3.0

     total cpu time spent up to now is        5.1 secs

     total energy              =    -133.85011340 Ry
     Harris-Foulkes estimate   =    -133.92513311 Ry
     estimated scf accuracy    <       0.23312777 Ry

     iteration #  4     ecut=    90.00 Ry     beta= 0.20
     Davidson diagonalization with overlap
     ethr =  5.30E-04,  avg # of iterations =  1.5

     total cpu time spent up to now is        6.0 secs

     total energy              =    -133.84329182 Ry
     Harris-Foulkes estimate   =    -133.86368930 Ry
     estimated scf accuracy    <       0.05145285 Ry

     iteration #  5     ecut=    90.00 Ry     beta= 0.20
     Davidson diagonalization with overlap
     ethr =  1.17E-04,  avg # of iterations =  4.3

     total cpu time spent up to now is        7.2 secs

     total energy              =    -133.85733932 Ry
     Harris-Foulkes estimate   =    -133.85818048 Ry
     estimated scf accuracy    <       0.00896109 Ry

     iteration #  6     ecut=    90.00 Ry     beta= 0.20
     Davidson diagonalization with overlap
     ethr =  2.04E-05,  avg # of iterations =  3.0

     total cpu time spent up to now is        8.1 secs

     total energy              =    -133.85708878 Ry
     Harris-Foulkes estimate   =    -133.85778332 Ry
     estimated scf accuracy    <       0.00782156 Ry

     iteration #  7     ecut=    90.00 Ry     beta= 0.20
     Davidson diagonalization with overlap
     ethr =  1.78E-05,  avg # of iterations =  1.3

     total cpu time spent up to now is        9.0 secs

     total energy              =    -133.85520001 Ry
     Harris-Foulkes estimate   =    -133.85728986 Ry
     estimated scf accuracy    <       0.00542454 Ry

     iteration #  8     ecut=    90.00 Ry     beta= 0.20
     Davidson diagonalization with overlap
     ethr =  1.23E-05,  avg # of iterations =  5.3

     total cpu time spent up to now is       10.3 secs

     total energy              =    -133.85531353 Ry
     Harris-Foulkes estimate   =    -133.85795904 Ry
     estimated scf accuracy    <       0.01458437 Ry

     iteration #  9     ecut=    90.00 Ry     beta= 0.20
     Davidson diagonalization with overlap
     ethr =  1.23E-05,  avg # of iterations =  4.5

     total cpu time spent up to now is       11.4 secs

     total energy              =    -133.85594364 Ry
     Harris-Foulkes estimate   =    -133.85634635 Ry
     estimated scf accuracy    <       0.00120951 Ry

     iteration # 10     ecut=    90.00 Ry     beta= 0.20
     Davidson diagonalization with overlap
     ethr =  2.75E-06,  avg # of iterations =  5.2

     total cpu time spent up to now is       12.6 secs

     total energy              =    -133.85592104 Ry
     Harris-Foulkes estimate   =    -133.85633531 Ry
     estimated scf accuracy    <       0.00157077 Ry

     iteration # 11     ecut=    90.00 Ry     beta= 0.20
     Davidson diagonalization with overlap
     ethr =  2.75E-06,  avg # of iterations =  4.2

     total cpu time spent up to now is       13.7 secs

     total energy              =    -133.85605298 Ry
     Harris-Foulkes estimate   =    -133.85609864 Ry
     estimated scf accuracy    <       0.00015079 Ry

     iteration # 12     ecut=    90.00 Ry     beta= 0.20
     Davidson diagonalization with overlap
     ethr =  3.43E-07,  avg # of iterations =  2.8

     total cpu time spent up to now is       14.8 secs

     total energy              =    -133.85607161 Ry
     Harris-Foulkes estimate   =    -133.85607912 Ry
     estimated scf accuracy    <       0.00001348 Ry

     iteration # 13     ecut=    90.00 Ry     beta= 0.20
     Davidson diagonalization with overlap
     ethr =  3.06E-08,  avg # of iterations =  4.8

     total cpu time spent up to now is       16.6 secs

     total energy              =    -133.85608029 Ry
     Harris-Foulkes estimate   =    -133.85608005 Ry
     estimated scf accuracy    <       0.00000778 Ry

     iteration # 14     ecut=    90.00 Ry     beta= 0.20
     Davidson diagonalization with overlap
     ethr =  1.77E-08,  avg # of iterations =  5.0

     total cpu time spent up to now is       18.1 secs

     total energy              =    -133.85607233 Ry
     Harris-Foulkes estimate   =    -133.85608656 Ry
     estimated scf accuracy    <       0.00005505 Ry

     iteration # 15     ecut=    90.00 Ry     beta= 0.20
     Davidson diagonalization with overlap
     ethr =  1.77E-08,  avg # of iterations =  6.0

     total cpu time spent up to now is       19.6 secs

     total energy              =    -133.85607861 Ry
     Harris-Foulkes estimate   =    -133.85607868 Ry
     estimated scf accuracy    <       0.00000050 Ry

     iteration # 16     ecut=    90.00 Ry     beta= 0.20
     Davidson diagonalization with overlap
     ethr =  1.14E-09,  avg # of iterations =  2.2

     total cpu time spent up to now is       20.6 secs

     total energy              =    -133.85607859 Ry
     Harris-Foulkes estimate   =    -133.85607865 Ry
     estimated scf accuracy    <       0.00000027 Ry

     iteration # 17     ecut=    90.00 Ry     beta= 0.20
     Davidson diagonalization with overlap
     ethr =  6.03E-10,  avg # of iterations =  4.5

     total cpu time spent up to now is       21.8 secs

     total energy              =    -133.85607865 Ry
     Harris-Foulkes estimate   =    -133.85607866 Ry
     estimated scf accuracy    <       0.00000008 Ry

     iteration # 18     ecut=    90.00 Ry     beta= 0.20
     Davidson diagonalization with overlap
     ethr =  1.79E-10,  avg # of iterations =  3.7

     total cpu time spent up to now is       22.9 secs

     total energy              =    -133.85607865 Ry
     Harris-Foulkes estimate   =    -133.85607865 Ry
     estimated scf accuracy    <       0.00000001 Ry

     iteration # 19     ecut=    90.00 Ry     beta= 0.20
     Davidson diagonalization with overlap
     ethr =  2.69E-11,  avg # of iterations =  5.3

     total cpu time spent up to now is       24.0 secs

     End of self-consistent calculation

          k = 0.0000 0.0000 0.0000 ( 14623 PWs)   bands (ev):

   -18.4756 -18.2270 -15.7740 -15.7740 -12.3495 -12.2668  -8.9506  -8.6498
    -7.3432  -7.3432  -7.0315  -6.5216  -5.9878  -5.9878  -4.0304  -4.0304
    -1.0035  -0.9096  -0.4464   0.0502   1.0703   1.0703

          k = 0.0000 0.0000 0.4005 ( 14687 PWs)   bands (ev):

   -18.3791 -18.2515 -15.7536 -15.7536 -12.7116 -12.4076  -9.0276  -8.5032
    -7.5377  -7.5377  -6.3601  -6.0390  -5.9354  -5.9354  -4.0264  -4.0264
    -1.4149  -1.0675  -0.7479  -0.0931   1.0397   1.0397

          k = 0.0000 0.3333 0.0000 ( 14674 PWs)   bands (ev):

   -18.4140 -18.2896 -15.7771 -15.7767 -12.3196 -12.2787  -8.8753  -8.7182
    -7.3600  -7.3527  -7.0898  -6.8798  -5.7237  -5.6656  -4.1580  -4.1435
    -0.8182  -0.6149  -0.5380  -0.1339   1.1477   1.1494

          k = 0.0000 0.3333 0.4005 ( 14700 PWs)   bands (ev):

   -18.3443 -18.2804 -15.7632 -15.7626 -12.6246 -12.4720  -8.9313  -8.6704
    -7.5394  -7.5390  -6.3831  -6.2862  -5.7766  -5.6999  -4.1090  -4.0899
    -1.2409  -1.0686  -0.5126  -0.1748   0.9557   0.9692

          k = 0.3333 0.3333 0.0000 ( 14745 PWs)   bands (ev):

   -18.3800 -18.3176 -15.7849 -15.7824 -12.3076 -12.2869  -8.8545  -8.7752
    -7.3601  -7.3541  -6.9830  -6.7305  -5.9913  -5.6923  -4.1935  -4.1188
    -0.7688  -0.6250  -0.3853  -0.1283   1.1233   1.2678

          k = 0.3333 0.3333 0.4005 ( 14669 PWs)   bands (ev):

   -18.3256 -18.2935 -15.7681 -15.7640 -12.5982 -12.5204  -8.8416  -8.7044
    -7.5566  -7.5490  -6.3263  -6.1945  -5.9488  -5.7389  -4.1214  -4.0759
    -1.2447  -1.1382  -0.3246  -0.1432   0.9095   1.0084

     highest occupied level (ev):     1.2678

!    total energy              =    -133.85607865 Ry
     Harris-Foulkes estimate   =    -133.85607865 Ry
     estimated scf accuracy    <          3.3E-09 Ry

     The total energy is the sum of the following terms:

     one-electron contribution =     -98.04581310 Ry
     hartree contribution      =      63.45230086 Ry
     xc contribution           =     -40.22133834 Ry
     ewald contribution        =     -58.98105882 Ry
     Dispersion Correction     =      -0.06016925 Ry

     convergence has been achieved in  19 iterations

     Forces acting on atoms (cartesian axes, Ry/au):

     atom    1 type  1   force =     0.00000000    0.00000000   -0.26414980
     atom    2 type  1   force =     0.00000000    0.00000000    0.26414980
     atom    3 type  2   force =     0.00000000    0.00000000    0.33663771
     atom    4 type  2   force =     0.00000000    0.00000000   -0.33663771
     atom    5 type  3   force =    -0.00007321   -0.00007321   -0.00088370
     atom    6 type  3   force =     0.00007321    0.00007321   -0.00088370
     atom    7 type  3   force =    -0.00007321    0.00007321    0.00088370
     atom    8 type  3   force =     0.00007321   -0.00007321    0.00088370
     atom    9 type  4   force =     0.04752843    0.04752843    0.02427433
     atom   10 type  4   force =    -0.04752843   -0.04752843    0.02427433
     atom   11 type  4   force =     0.04752843   -0.04752843   -0.02427433
     atom   12 type  4   force =    -0.04752843    0.04752843   -0.02427433
     atom   13 type  4   force =    -0.00228488   -0.00228488   -0.06954706
     atom   14 type  4   force =     0.00228488    0.00228488   -0.06954706
     atom   15 type  4   force =    -0.00228488    0.00228488    0.06954706
     atom   16 type  4   force =     0.00228488   -0.00228488    0.06954706

     Total force =     0.637198     Total SCF correction =     0.000076

     BFGS Geometry Optimization

     number of scf cycles    =   1
     number of bfgs steps    =   0

     energy   new            =    -133.8560786543 Ry

     new trust radius        =       0.3366377119 bohr
     new conv_thr            =       0.0000000100 Ry


ATOMIC_POSITIONS (crystal)
C             0.0000000000        0.5000000000        0.3033348784
C             0.5000000000        0.0000000000        0.6966650966
O             0.0000000000        0.5000000000        0.6346058368
O             0.5000000000        0.0000000000        0.3653941632
N             0.1438931675        0.6438931155        0.1831007596
N             0.8561068005        0.3561068845        0.1831007596
N             0.6438931155        0.8561068005        0.8168992534
N             0.3561068845        0.1438931675        0.8168992534
H             0.2566428614        0.7566428404        0.2866260994
H             0.7433571176        0.2433571386        0.2866260994
H             0.7566428404        0.7433571176        0.7133738756
H             0.2433571386        0.2566428614        0.7133738756
H             0.1362864157        0.6362864267        0.9645895883
H             0.8637135733        0.3637135733        0.9645895883
H             0.6362864267        0.8637135733        0.0354104147
H             0.3637135733        0.1362864157        0.0354104147



     Writing output data file /tmp/ceresoli/urea.save/
     NEW-OLD atomic charge density approx. for the potential

     total cpu time spent up to now is       24.8 secs

     Self-consistent Calculation

     iteration #  1     ecut=    90.00 Ry     beta= 0.20
     Davidson diagonalization with overlap
     ethr =  1.00E-06,  avg # of iterations = 15.3

     total cpu time spent up to now is       28.2 secs

     total energy              =    -133.88820786 Ry
     Harris-Foulkes estimate   =    -133.91933119 Ry
     estimated scf accuracy    <       0.15300129 Ry

     iteration #  2     ecut=    90.00 Ry     beta= 0.20
     Davidson diagonalization with overlap
     ethr =  3.48E-04,  avg # of iterations =  1.0

     total cpu time spent up to now is       29.0 secs

     total energy              =    -133.85976503 Ry
     Harris-Foulkes estimate   =    -133.89076446 Ry
     estimated scf accuracy    <       0.07446842 Ry

     iteration #  3     ecut=    90.00 Ry     beta= 0.20
     Davidson diagonalization with overlap
     ethr =  1.69E-04,  avg # of iterations =  2.0

     total cpu time spent up to now is       30.2 secs

     total energy              =    -133.86932737 Ry
     Harris-Foulkes estimate   =    -133.87155935 Ry
     estimated scf accuracy    <       0.00729504 Ry

     iteration #  4     ecut=    90.00 Ry     beta= 0.20
     Davidson diagonalization with overlap
     ethr =  1.66E-05,  avg # of iterations =  2.8

     total cpu time spent up to now is       31.6 secs

     total energy              =    -133.87097572 Ry
     Harris-Foulkes estimate   =    -133.87132686 Ry
     estimated scf accuracy    <       0.00198791 Ry

     iteration #  5     ecut=    90.00 Ry     beta= 0.20
     Davidson diagonalization with overlap
     ethr =  4.52E-06,  avg # of iterations =  5.3

     total cpu time spent up to now is       32.9 secs

     total energy              =    -133.87131905 Ry
     Harris-Foulkes estimate   =    -133.87129557 Ry
     estimated scf accuracy    <       0.00021130 Ry

     iteration #  6     ecut=    90.00 Ry     beta= 0.20
     Davidson diagonalization with overlap
     ethr =  4.80E-07,  avg # of iterations =  4.2

     total cpu time spent up to now is       34.0 secs

     total energy              =    -133.87138243 Ry
     Harris-Foulkes estimate   =    -133.87135184 Ry
     estimated scf accuracy    <       0.00007856 Ry

     iteration #  7     ecut=    90.00 Ry     beta= 0.20
     Davidson diagonalization with overlap
     ethr =  1.79E-07,  avg # of iterations =  2.0

     total cpu time spent up to now is       34.9 secs

     total energy              =    -133.87138943 Ry
     Harris-Foulkes estimate   =    -133.87138830 Ry
     estimated scf accuracy    <       0.00000555 Ry

     iteration #  8     ecut=    90.00 Ry     beta= 0.20
     Davidson diagonalization with overlap
     ethr =  1.26E-08,  avg # of iterations =  3.5

     total cpu time spent up to now is       35.9 secs

     total energy              =    -133.87138980 Ry
     Harris-Foulkes estimate   =    -133.87139011 Ry
     estimated scf accuracy    <       0.00000187 Ry

     iteration #  9     ecut=    90.00 Ry     beta= 0.20
     Davidson diagonalization with overlap
     ethr =  4.25E-09,  avg # of iterations =  3.5

     total cpu time spent up to now is       37.1 secs

     total energy              =    -133.87139015 Ry
     Harris-Foulkes estimate   =    -133.87139036 Ry
     estimated scf accuracy    <       0.00000067 Ry

     iteration # 10     ecut=    90.00 Ry     beta= 0.20
     Davidson diagonalization with overlap
     ethr =  1.52E-09,  avg # of iterations =  2.7

     total cpu time spent up to now is       38.1 secs

     total energy              =    -133.87139018 Ry
     Harris-Foulkes estimate   =    -133.87139023 Ry
     estimated scf accuracy    <       0.00000017 Ry

     iteration # 11     ecut=    90.00 Ry     beta= 0.20
     Davidson diagonalization with overlap
     ethr =  3.83E-10,  avg # of iterations =  4.3

     total cpu time spent up to now is       39.3 secs

     total energy              =    -133.87139021 Ry
     Harris-Foulkes estimate   =    -133.87139022 Ry
     estimated scf accuracy    <       0.00000001 Ry

     iteration # 12     ecut=    90.00 Ry     beta= 0.20
     Davidson diagonalization with overlap
     ethr =  2.65E-11,  avg # of iterations =  3.0

     total cpu time spent up to now is       40.5 secs

     End of self-consistent calculation

          k = 0.0000 0.0000 0.0000 ( 14623 PWs)   bands (ev):

   -18.6349 -18.4132 -16.0303 -16.0303 -10.3156 -10.0964  -9.1206  -8.5260
    -7.2363  -7.2363  -7.0100  -6.3861  -6.1933  -6.1933  -4.0527  -4.0527
    -1.0608  -0.1594  -0.1376   0.3788   1.3161   1.3161

          k = 0.0000 0.0000 0.4005 ( 14687 PWs)   bands (ev):

   -18.5546 -18.4299 -16.0131 -16.0131 -10.9537 -10.5612  -9.1949  -8.4199
    -7.3411  -7.3411  -6.2588  -6.2588  -5.6551  -5.0619  -4.0377  -4.0377
    -1.2521  -0.9116  -0.9113  -0.2678   1.6191   1.6191

          k = 0.0000 0.3333 0.0000 ( 14674 PWs)   bands (ev):

   -18.5793 -18.4683 -16.0337 -16.0333 -10.2340 -10.1244  -8.9685  -8.6510
    -7.4896  -7.3836  -6.9739  -6.8351  -5.7846  -5.6916  -4.1337  -4.1309
    -0.7696  -0.3079  -0.0799   0.2071   1.3653   1.3721

          k = 0.0000 0.3333 0.4005 ( 14700 PWs)   bands (ev):

   -18.5209 -18.4584 -16.0202 -16.0198 -10.8276 -10.6195  -9.1079  -8.7210
    -7.3337  -7.3293  -6.2855  -6.2693  -5.3753  -5.0899  -4.0961  -4.0789
    -1.1244  -0.9448  -0.6743  -0.3465   1.4623   1.4800

          k = 0.3333 0.3333 0.0000 ( 14745 PWs)   bands (ev):

   -18.5488 -18.4932 -16.0399 -16.0383 -10.2163 -10.1583  -8.9093  -8.7614
    -7.4281  -7.2552  -6.9189  -6.6475  -6.1990  -5.7360  -4.1722  -4.1369
    -0.5512  -0.3099   0.0109   0.1726   1.3436   1.4058

          k = 0.3333 0.3333 0.4005 ( 14669 PWs)   bands (ev):

   -18.5027 -18.4713 -16.0246 -16.0222 -10.8201 -10.7054  -8.9486  -8.7188
    -7.3616  -7.3418  -6.2862  -6.2810  -5.3858  -5.1904  -4.1085  -4.0879
    -1.0990  -1.0073  -0.4940  -0.3233   1.4375   1.5956

     highest occupied level (ev):     1.6191

!    total energy              =    -133.87139022 Ry
     Harris-Foulkes estimate   =    -133.87139022 Ry
     estimated scf accuracy    <          6.8E-09 Ry

     The total energy is the sum of the following terms:

     one-electron contribution =     -92.98094412 Ry
     hartree contribution      =      60.95645600 Ry
     xc contribution           =     -39.70375826 Ry
     ewald contribution        =     -62.08265723 Ry
     Dispersion Correction     =      -0.06048660 Ry

     convergence has been achieved in  12 iterations

     Forces acting on atoms (cartesian axes, Ry/au):

     atom    1 type  1   force =     0.00000000    0.00000000    0.31372736
     atom    2 type  1   force =     0.00000000    0.00000000   -0.31372736
     atom    3 type  2   force =     0.00000000    0.00000000   -0.11363053
     atom    4 type  2   force =     0.00000000    0.00000000    0.11363053
     atom    5 type  3   force =     0.05083062    0.05083062   -0.08799613
     atom    6 type  3   force =    -0.05083062   -0.05083062   -0.08799613
     atom    7 type  3   force =     0.05083062   -0.05083062    0.08799613
     atom    8 type  3   force =    -0.05083062    0.05083062    0.08799613
     atom    9 type  4   force =     0.01787851    0.01787851    0.01172943
     atom   10 type  4   force =    -0.01787851   -0.01787851    0.01172943
     atom   11 type  4   force =     0.01787851   -0.01787851   -0.01172943
     atom   12 type  4   force =    -0.01787851    0.01787851   -0.01172943
     atom   13 type  4   force =     0.01236344    0.01236344   -0.03491757
     atom   14 type  4   force =    -0.01236344   -0.01236344   -0.03491757
     atom   15 type  4   force =     0.01236344   -0.01236344    0.03491757
     atom   16 type  4   force =    -0.01236344    0.01236344    0.03491757

     Total force =     0.532470     Total SCF correction =     0.000150

     number of scf cycles    =   2
     number of bfgs steps    =   1

     energy   old            =    -133.8560786543 Ry
     energy   new            =    -133.8713902155 Ry

     CASE: energy  _new < energy  _old

     new trust radius        =       0.1590281491 bohr
     new conv_thr            =       0.0000000100 Ry


ATOMIC_POSITIONS (crystal)
C             0.0000000000        0.5000000000        0.3211944017
C             0.5000000000        0.0000000000        0.6788055733
O             0.0000000000        0.5000000000        0.6325405582
O             0.5000000000        0.0000000000        0.3674594418
N             0.1469515795        0.6469515275        0.1767213445
N             0.8530483885        0.3530484725        0.1767213445
N             0.6469515275        0.8530483885        0.8232786685
N             0.3530484725        0.1469515795        0.8232786685
H             0.2584419114        0.7584418904        0.2879178769
H             0.7415580676        0.2415580886        0.2879178769
H             0.7584418904        0.7415580676        0.7120820981
H             0.2415580886        0.2584419114        0.7120820981
H             0.1369958242        0.6369958352        0.9607936962
H             0.8630041648        0.3630041648        0.9607936962
H             0.6369958352        0.8630041648        0.0392063068
H             0.3630041648        0.1369958242        0.0392063068



     Writing output data file /tmp/ceresoli/urea.save/
     NEW-OLD atomic charge density approx. for the potential

     total cpu time spent up to now is       41.2 secs

     Self-consistent Calculation

     iteration #  1     ecut=    90.00 Ry     beta= 0.20
     Davidson diagonalization with overlap
     ethr =  1.00E-06,  avg # of iterations = 12.0

     total cpu time spent up to now is       44.1 secs

     total energy              =    -133.95647609 Ry
     Harris-Foulkes estimate   =    -133.96697169 Ry
     estimated scf accuracy    <       0.03978001 Ry

     iteration #  2     ecut=    90.00 Ry     beta= 0.20
     Davidson diagonalization with overlap
     ethr =  9.04E-05,  avg # of iterations =  1.0

     total cpu time spent up to now is       45.1 secs

     total energy              =    -133.95269609 Ry
     Harris-Foulkes estimate   =    -133.95810584 Ry
     estimated scf accuracy    <       0.01323194 Ry

     iteration #  3     ecut=    90.00 Ry     beta= 0.20
     Davidson diagonalization with overlap
     ethr =  3.01E-05,  avg # of iterations =  3.5

     total cpu time spent up to now is       46.4 secs

     total energy              =    -133.95557709 Ry
     Harris-Foulkes estimate   =    -133.95595214 Ry
     estimated scf accuracy    <       0.00363877 Ry

     iteration #  4     ecut=    90.00 Ry     beta= 0.20
     Davidson diagonalization with overlap
     ethr =  8.27E-06,  avg # of iterations =  1.2

     total cpu time spent up to now is       47.3 secs

     total energy              =    -133.95455344 Ry
     Harris-Foulkes estimate   =    -133.95564391 Ry
     estimated scf accuracy    <       0.00257545 Ry

     iteration #  5     ecut=    90.00 Ry     beta= 0.20
     Davidson diagonalization with overlap
     ethr =  5.85E-06,  avg # of iterations =  4.2

     total cpu time spent up to now is       48.7 secs

     total energy              =    -133.95485431 Ry
     Harris-Foulkes estimate   =    -133.95588166 Ry
     estimated scf accuracy    <       0.00217574 Ry

     iteration #  6     ecut=    90.00 Ry     beta= 0.20
     Davidson diagonalization with overlap
     ethr =  4.94E-06,  avg # of iterations =  3.7

     total cpu time spent up to now is       49.9 secs

     total energy              =    -133.95533742 Ry
     Harris-Foulkes estimate   =    -133.95534018 Ry
     estimated scf accuracy    <       0.00009451 Ry

     iteration #  7     ecut=    90.00 Ry     beta= 0.20
     Davidson diagonalization with overlap
     ethr =  2.15E-07,  avg # of iterations =  3.2

     total cpu time spent up to now is       51.2 secs

     total energy              =    -133.95536275 Ry
     Harris-Foulkes estimate   =    -133.95536319 Ry
     estimated scf accuracy    <       0.00001038 Ry

     iteration #  8     ecut=    90.00 Ry     beta= 0.20
     Davidson diagonalization with overlap
     ethr =  2.36E-08,  avg # of iterations =  5.0

     total cpu time spent up to now is       52.3 secs

     total energy              =    -133.95536276 Ry
     Harris-Foulkes estimate   =    -133.95536376 Ry
     estimated scf accuracy    <       0.00000579 Ry

     iteration #  9     ecut=    90.00 Ry     beta= 0.20
     Davidson diagonalization with overlap
     ethr =  1.32E-08,  avg # of iterations =  4.0

     total cpu time spent up to now is       53.7 secs

     total energy              =    -133.95536565 Ry
     Harris-Foulkes estimate   =    -133.95536686 Ry
     estimated scf accuracy    <       0.00000845 Ry

     iteration # 10     ecut=    90.00 Ry     beta= 0.20
     Davidson diagonalization with overlap
     ethr =  1.32E-08,  avg # of iterations =  1.0

     total cpu time spent up to now is       54.6 secs

     total energy              =    -133.95536255 Ry
     Harris-Foulkes estimate   =    -133.95536577 Ry
     estimated scf accuracy    <       0.00000533 Ry

     iteration # 11     ecut=    90.00 Ry     beta= 0.20
     Davidson diagonalization with overlap
     ethr =  1.21E-08,  avg # of iterations =  4.2

     total cpu time spent up to now is       56.0 secs

     total energy              =    -133.95536460 Ry
     Harris-Foulkes estimate   =    -133.95536527 Ry
     estimated scf accuracy    <       0.00000222 Ry

     iteration # 12     ecut=    90.00 Ry     beta= 0.20
     Davidson diagonalization with overlap
     ethr =  5.04E-09,  avg # of iterations =  2.5

     total cpu time spent up to now is       57.0 secs

     total energy              =    -133.95536458 Ry
     Harris-Foulkes estimate   =    -133.95536475 Ry
     estimated scf accuracy    <       0.00000044 Ry

     iteration # 13     ecut=    90.00 Ry     beta= 0.20
     Davidson diagonalization with overlap
     ethr =  9.98E-10,  avg # of iterations =  3.7

     total cpu time spent up to now is       58.2 secs

     total energy              =    -133.95536467 Ry
     Harris-Foulkes estimate   =    -133.95536467 Ry
     estimated scf accuracy    <       0.00000001 Ry

     iteration # 14     ecut=    90.00 Ry     beta= 0.20
     Davidson diagonalization with overlap
     ethr =  3.14E-11,  avg # of iterations =  3.0

     total cpu time spent up to now is       59.3 secs

     total energy              =    -133.95536466 Ry
     Harris-Foulkes estimate   =    -133.95536467 Ry
     estimated scf accuracy    <       0.00000001 Ry

     iteration # 15     ecut=    90.00 Ry     beta= 0.20
     Davidson diagonalization with overlap
     ethr =  2.50E-11,  avg # of iterations =  3.0

     total cpu time spent up to now is       60.6 secs

     End of self-consistent calculation

          k = 0.0000 0.0000 0.0000 ( 14623 PWs)   bands (ev):

   -18.0170 -17.7380 -15.4795 -15.4795 -10.8804 -10.6906  -8.7142  -8.1786
    -7.2281  -6.8752  -6.8752  -6.5526  -5.8593  -5.8593  -3.5475  -3.5475
    -0.8957  -0.6444  -0.0863   0.1137   1.0235   1.0235

          k = 0.0000 0.0000 0.4005 ( 14687 PWs)   bands (ev):

   -17.9108 -17.7587 -15.4576 -15.4576 -11.4656 -11.1059  -8.7767  -7.9741
    -7.0982  -7.0982  -6.0760  -5.8060  -5.8060  -5.5827  -3.5441  -3.5441
    -1.4693  -1.0869  -0.7413  -0.0219   1.2848   1.2848

          k = 0.0000 0.3333 0.0000 ( 14674 PWs)   bands (ev):

   -17.9481 -17.8085 -15.4830 -15.4825 -10.8098 -10.7154  -8.5694  -8.2633
    -7.4118  -7.1008  -6.8695  -6.8630  -5.4798  -5.4083  -3.6689  -3.6637
    -0.5860  -0.5141  -0.2210  -0.0899   1.1047   1.1147

          k = 0.0000 0.3333 0.4005 ( 14700 PWs)   bands (ev):

   -17.8696 -17.7932 -15.4679 -15.4672 -11.3540 -11.1700  -8.6642  -8.2715
    -7.0993  -7.0987  -6.1602  -6.0445  -5.4795  -5.3344  -3.6308  -3.6088
    -1.3002  -1.1031  -0.4863  -0.1202   1.1505   1.1656

          k = 0.3333 0.3333 0.0000 ( 14745 PWs)   bands (ev):

   -17.9098 -17.8398 -15.4912 -15.4886 -10.7880 -10.7392  -8.5555  -8.4083
    -7.2272  -6.8897  -6.8893  -6.7919  -5.8659  -5.4412  -3.7154  -3.6513
    -0.4433  -0.3473  -0.2873  -0.0844   1.0997   1.1718

          k = 0.3333 0.3333 0.4005 ( 14669 PWs)   bands (ev):

   -17.8473 -17.8090 -15.4731 -15.4688 -11.3377 -11.2394  -8.5176  -8.2979
    -7.1220  -7.1114  -6.0964  -5.8196  -5.8154  -5.4010  -3.6463  -3.6059
    -1.2933  -1.1822  -0.2878  -0.0945   1.1175   1.2714

     highest occupied level (ev):     1.2848

!    total energy              =    -133.95536466 Ry
     Harris-Foulkes estimate   =    -133.95536467 Ry
     estimated scf accuracy    <          4.6E-09 Ry

     The total energy is the sum of the following terms:

     one-electron contribution =     -88.40113956 Ry
     hartree contribution      =      58.76550505 Ry
     xc contribution           =     -39.51491224 Ry
     ewald contribution        =     -64.74316558 Ry
     Dispersion Correction     =      -0.06165233 Ry

     convergence has been achieved in  15 iterations

     Forces acting on atoms (cartesian axes, Ry/au):

     atom    1 type  1   force =     0.00000000    0.00000000    0.08264675
     atom    2 type  1   force =     0.00000000    0.00000000   -0.08264675
     atom    3 type  2   force =     0.00000000    0.00000000   -0.08507672
     atom    4 type  2   force =     0.00000000    0.00000000    0.08507672
     atom    5 type  3   force =    -0.01089011   -0.01089011    0.04005296
     atom    6 type  3   force =     0.01089011    0.01089011    0.04005296
     atom    7 type  3   force =    -0.01089011    0.01089011   -0.04005296
     atom    8 type  3   force =     0.01089011   -0.01089011   -0.04005296
     atom    9 type  4   force =     0.00843224    0.00843224   -0.01015076
     atom   10 type  4   force =    -0.00843224   -0.00843224   -0.01015076
     atom   11 type  4   force =     0.00843224   -0.00843224    0.01015076
     atom   12 type  4   force =    -0.00843224    0.00843224    0.01015076
     atom   13 type  4   force =     0.00474343    0.00474343   -0.04194885
     atom   14 type  4   force =    -0.00474343   -0.00474343   -0.04194885
     atom   15 type  4   force =     0.00474343   -0.00474343    0.04194885
     atom   16 type  4   force =    -0.00474343    0.00474343    0.04194885

     Total force =     0.209052     Total SCF correction =     0.000132

     number of scf cycles    =   3
     number of bfgs steps    =   2

     energy   old            =    -133.8713902155 Ry
     energy   new            =    -133.9553646649 Ry

     CASE: energy  _new < energy  _old

     new trust radius        =       0.1038453702 bohr
     new conv_thr            =       0.0000000085 Ry


ATOMIC_POSITIONS (crystal)
C             0.0000000000        0.5000000000        0.3328566692
C             0.5000000000        0.0000000000        0.6671433058
O             0.0000000000        0.5000000000        0.6217705332
O             0.5000000000        0.0000000000        0.3782294668
N             0.1459324732        0.6459324212        0.1816923460
N             0.8540674948        0.3540675788        0.1816923460
N             0.6459324212        0.8540674948        0.8183076670
N             0.3540675788        0.1459324732        0.8183076670
H             0.2596026574        0.7596026364        0.2866954740
H             0.7403973216        0.2403973426        0.2866954740
H             0.7596026364        0.7403973216        0.7133045010
H             0.2403973426        0.2596026574        0.7133045010
H             0.1375697012        0.6375697122        0.9547236445
H             0.8624302878        0.3624302878        0.9547236445
H             0.6375697122        0.8624302878        0.0452763585
H             0.3624302878        0.1375697012        0.0452763585



     Writing output data file /tmp/ceresoli/urea.save/
     NEW-OLD atomic charge density approx. for the potential

     total cpu time spent up to now is       61.4 secs

     Self-consistent Calculation

     iteration #  1     ecut=    90.00 Ry     beta= 0.20
     Davidson diagonalization with overlap
     ethr =  1.00E-06,  avg # of iterations = 11.0

     total cpu time spent up to now is       64.2 secs

     total energy              =    -133.96514856 Ry
     Harris-Foulkes estimate   =    -133.97823905 Ry
     estimated scf accuracy    <       0.04638709 Ry

     iteration #  2     ecut=    90.00 Ry     beta= 0.20
     Davidson diagonalization with overlap
     ethr =  1.05E-04,  avg # of iterations =  2.3

     total cpu time spent up to now is       65.1 secs

     total energy              =    -133.96522623 Ry
     Harris-Foulkes estimate   =    -133.96820830 Ry
     estimated scf accuracy    <       0.00966051 Ry

     iteration #  3     ecut=    90.00 Ry     beta= 0.20
     Davidson diagonalization with overlap
     ethr =  2.20E-05,  avg # of iterations =  3.8

     total cpu time spent up to now is       66.2 secs

     total energy              =    -133.96659075 Ry
     Harris-Foulkes estimate   =    -133.96744570 Ry
     estimated scf accuracy    <       0.00286333 Ry

     iteration #  4     ecut=    90.00 Ry     beta= 0.20
     Davidson diagonalization with overlap
     ethr =  6.51E-06,  avg # of iterations =  3.7

     total cpu time spent up to now is       67.4 secs

     total energy              =    -133.96683698 Ry
     Harris-Foulkes estimate   =    -133.96752747 Ry
     estimated scf accuracy    <       0.00240171 Ry

     iteration #  5     ecut=    90.00 Ry     beta= 0.20
     Davidson diagonalization with overlap
     ethr =  5.46E-06,  avg # of iterations =  2.5

     total cpu time spent up to now is       68.3 secs

     total energy              =    -133.96698655 Ry
     Harris-Foulkes estimate   =    -133.96707420 Ry
     estimated scf accuracy    <       0.00023775 Ry

     iteration #  6     ecut=    90.00 Ry     beta= 0.20
     Davidson diagonalization with overlap
     ethr =  5.40E-07,  avg # of iterations =  5.0

     total cpu time spent up to now is       69.5 secs

     total energy              =    -133.96706763 Ry
     Harris-Foulkes estimate   =    -133.96707017 Ry
     estimated scf accuracy    <       0.00002244 Ry

     iteration #  7     ecut=    90.00 Ry     beta= 0.20
     Davidson diagonalization with overlap
     ethr =  5.10E-08,  avg # of iterations =  3.2

     total cpu time spent up to now is       70.5 secs

     total energy              =    -133.96707065 Ry
     Harris-Foulkes estimate   =    -133.96707028 Ry
     estimated scf accuracy    <       0.00000293 Ry

     iteration #  8     ecut=    90.00 Ry     beta= 0.20
     Davidson diagonalization with overlap
     ethr =  6.66E-09,  avg # of iterations =  2.5

     total cpu time spent up to now is       71.6 secs

     total energy              =    -133.96707104 Ry
     Harris-Foulkes estimate   =    -133.96707115 Ry
     estimated scf accuracy    <       0.00000061 Ry

     iteration #  9     ecut=    90.00 Ry     beta= 0.20
     Davidson diagonalization with overlap
     ethr =  1.38E-09,  avg # of iterations =  1.7

     total cpu time spent up to now is       72.4 secs

     total energy              =    -133.96707095 Ry
     Harris-Foulkes estimate   =    -133.96707107 Ry
     estimated scf accuracy    <       0.00000030 Ry

     iteration # 10     ecut=    90.00 Ry     beta= 0.20
     Davidson diagonalization with overlap
     ethr =  6.90E-10,  avg # of iterations =  4.7

     total cpu time spent up to now is       73.6 secs

     total energy              =    -133.96707104 Ry
     Harris-Foulkes estimate   =    -133.96707105 Ry
     estimated scf accuracy    <       0.00000005 Ry

     iteration # 11     ecut=    90.00 Ry     beta= 0.20
     Davidson diagonalization with overlap
     ethr =  1.13E-10,  avg # of iterations =  3.2

     total cpu time spent up to now is       74.6 secs

     total energy              =    -133.96707104 Ry
     Harris-Foulkes estimate   =    -133.96707105 Ry
     estimated scf accuracy    <       0.00000002 Ry

     iteration # 12     ecut=    90.00 Ry     beta= 0.20
     Davidson diagonalization with overlap
     ethr =  4.43E-11,  avg # of iterations =  4.0

     total cpu time spent up to now is       75.7 secs

     End of self-consistent calculation

          k = 0.0000 0.0000 0.0000 ( 14623 PWs)   bands (ev):

   -17.9332 -17.6502 -15.2526 -15.2526 -11.4858 -11.2862  -8.6977  -8.1294
    -7.0240  -6.6609  -6.6609  -6.3095  -5.6523  -5.6523  -3.6068  -3.6068
    -0.8088  -0.8076  -0.1960   0.1895   0.8675   0.8675

          k = 0.0000 0.0000 0.4005 ( 14687 PWs)   bands (ev):

   -17.8192 -17.6727 -15.2285 -15.2285 -11.9828 -11.5864  -8.7079  -7.9773
    -6.9012  -6.9012  -5.9748  -5.6177  -5.6177  -5.5721  -3.5993  -3.5993
    -1.5590  -1.1075  -0.6438   0.0431   1.1234   1.1234

          k = 0.0000 0.3333 0.0000 ( 14674 PWs)   bands (ev):

   -17.8634 -17.7218 -15.2566 -15.2560 -11.4182 -11.3187  -8.5654  -8.2630
    -7.1527  -6.8850  -6.6175  -6.5689  -5.2991  -5.2221  -3.7531  -3.7396
    -0.6406  -0.5077  -0.3253  -0.0224   0.9491   0.9610

          k = 0.0000 0.3333 0.4005 ( 14700 PWs)   bands (ev):

   -17.7792 -17.7056 -15.2410 -15.2401 -11.8649 -11.6644  -8.5966  -8.2375
    -6.9063  -6.9049  -6.0259  -5.9309  -5.3543  -5.2247  -3.7065  -3.6752
    -1.3547  -1.1271  -0.3982  -0.0450   0.9980   1.0127

          k = 0.3333 0.3333 0.0000 ( 14745 PWs)   bands (ev):

   -17.8248 -17.7537 -15.2650 -15.2625 -11.3942 -11.3438  -8.5289  -8.3859
    -6.9926  -6.6774  -6.6491  -6.5419  -5.6526  -5.2551  -3.7978  -3.7129
    -0.5721  -0.4099  -0.2667  -0.0040   0.9317   1.0350

          k = 0.3333 0.3333 0.4005 ( 14669 PWs)   bands (ev):

   -17.7576 -17.7207 -15.2464 -15.2403 -11.8379 -11.7339  -8.4659  -8.2685
    -6.9264  -6.9185  -5.9682  -5.7666  -5.6351  -5.2861  -3.7106  -3.6482
    -1.3506  -1.2188  -0.2018  -0.0123   0.9533   1.0970

     highest occupied level (ev):     1.1234

!    total energy              =    -133.96707104 Ry
     Harris-Foulkes estimate   =    -133.96707104 Ry
     estimated scf accuracy    <          1.0E-09 Ry

     The total energy is the sum of the following terms:

     one-electron contribution =     -88.81598789 Ry
     hartree contribution      =      58.99069998 Ry
     xc contribution           =     -39.51530340 Ry
     ewald contribution        =     -64.56449071 Ry
     Dispersion Correction     =      -0.06198901 Ry

     convergence has been achieved in  12 iterations

     Forces acting on atoms (cartesian axes, Ry/au):

     atom    1 type  1   force =     0.00000000    0.00000000   -0.06166640
     atom    2 type  1   force =     0.00000000    0.00000000    0.06166640
     atom    3 type  2   force =     0.00000000    0.00000000    0.05460156
     atom    4 type  2   force =     0.00000000    0.00000000   -0.05460156
     atom    5 type  3   force =     0.00236180    0.00236180   -0.02478971
     atom    6 type  3   force =    -0.00236180   -0.00236180   -0.02478971
     atom    7 type  3   force =     0.00236180   -0.00236180    0.02478971
     atom    8 type  3   force =    -0.00236180    0.00236180    0.02478971
     atom    9 type  4   force =     0.00392118    0.00392118   -0.00775270
     atom   10 type  4   force =    -0.00392118   -0.00392118   -0.00775270
     atom   11 type  4   force =     0.00392118   -0.00392118    0.00775270
     atom   12 type  4   force =    -0.00392118    0.00392118    0.00775270
     atom   13 type  4   force =    -0.00173248   -0.00173248    0.02429795
     atom   14 type  4   force =     0.00173248    0.00173248    0.02429795
     atom   15 type  4   force =    -0.00173248    0.00173248   -0.02429795
     atom   16 type  4   force =     0.00173248   -0.00173248   -0.02429795

     Total force =     0.137186     Total SCF correction =     0.000031

     number of scf cycles    =   4
     number of bfgs steps    =   3

     energy   old            =    -133.9553646649 Ry
     energy   new            =    -133.9670710417 Ry

     CASE: energy  _new < energy  _old

     new trust radius        =       0.0422933922 bohr
     new conv_thr            =       0.0000000062 Ry


ATOMIC_POSITIONS (crystal)
C             0.0000000000        0.5000000000        0.3281069452
C             0.5000000000        0.0000000000        0.6718930298
O             0.0000000000        0.5000000000        0.6258964770
O             0.5000000000        0.0000000000        0.3741035230
N             0.1461355776        0.6461355256        0.1796517549
N             0.8538643904        0.3538644744        0.1796517549
N             0.6461355256        0.8538643904        0.8203482581
N             0.3538644744        0.1461355776        0.8203482581
H             0.2597101865        0.7597101655        0.2862136675
H             0.7402897925        0.2402898135        0.2862136675
H             0.7597101655        0.7402897925        0.7137863075
H             0.2402898135        0.2597101865        0.7137863075
H             0.1374343168        0.6374343278        0.9568769137
H             0.8625656722        0.3625656722        0.9568769137
H             0.6374343278        0.8625656722        0.0431230893
H             0.3625656722        0.1374343168        0.0431230893



     Writing output data file /tmp/ceresoli/urea.save/
     NEW-OLD atomic charge density approx. for the potential

     total cpu time spent up to now is       76.4 secs

     Self-consistent Calculation

     iteration #  1     ecut=    90.00 Ry     beta= 0.20
     Davidson diagonalization with overlap
     ethr =  1.00E-06,  avg # of iterations =  8.2

     total cpu time spent up to now is       78.8 secs

     total energy              =    -133.97304795 Ry
     Harris-Foulkes estimate   =    -133.97496019 Ry
     estimated scf accuracy    <       0.00686307 Ry

     iteration #  2     ecut=    90.00 Ry     beta= 0.20
     Davidson diagonalization with overlap
     ethr =  1.56E-05,  avg # of iterations =  2.0

     total cpu time spent up to now is       79.6 secs

     total energy              =    -133.97283399 Ry
     Harris-Foulkes estimate   =    -133.97343491 Ry
     estimated scf accuracy    <       0.00172884 Ry

     iteration #  3     ecut=    90.00 Ry     beta= 0.20
     Davidson diagonalization with overlap
     ethr =  3.93E-06,  avg # of iterations =  3.5

     total cpu time spent up to now is       80.7 secs

     total energy              =    -133.97305619 Ry
     Harris-Foulkes estimate   =    -133.97321898 Ry
     estimated scf accuracy    <       0.00047930 Ry

     iteration #  4     ecut=    90.00 Ry     beta= 0.20
     Davidson diagonalization with overlap
     ethr =  1.09E-06,  avg # of iterations =  3.3

     total cpu time spent up to now is       81.9 secs

     total energy              =    -133.97311431 Ry
     Harris-Foulkes estimate   =    -133.97324815 Ry
     estimated scf accuracy    <       0.00046422 Ry

     iteration #  5     ecut=    90.00 Ry     beta= 0.20
     Davidson diagonalization with overlap
     ethr =  1.06E-06,  avg # of iterations =  2.3

     total cpu time spent up to now is       82.8 secs

     total energy              =    -133.97313436 Ry
     Harris-Foulkes estimate   =    -133.97315586 Ry
     estimated scf accuracy    <       0.00006345 Ry

     iteration #  6     ecut=    90.00 Ry     beta= 0.20
     Davidson diagonalization with overlap
     ethr =  1.44E-07,  avg # of iterations =  4.3

     total cpu time spent up to now is       84.0 secs

     total energy              =    -133.97315201 Ry
     Harris-Foulkes estimate   =    -133.97315178 Ry
     estimated scf accuracy    <       0.00000211 Ry

     iteration #  7     ecut=    90.00 Ry     beta= 0.20
     Davidson diagonalization with overlap
     ethr =  4.80E-09,  avg # of iterations =  3.2

     total cpu time spent up to now is       84.9 secs

     total energy              =    -133.97315242 Ry
     Harris-Foulkes estimate   =    -133.97315233 Ry
     estimated scf accuracy    <       0.00000093 Ry

     iteration #  8     ecut=    90.00 Ry     beta= 0.20
     Davidson diagonalization with overlap
     ethr =  2.12E-09,  avg # of iterations =  2.5

     total cpu time spent up to now is       85.9 secs

     total energy              =    -133.97315252 Ry
     Harris-Foulkes estimate   =    -133.97315254 Ry
     estimated scf accuracy    <       0.00000042 Ry

     iteration #  9     ecut=    90.00 Ry     beta= 0.20
     Davidson diagonalization with overlap
     ethr =  9.66E-10,  avg # of iterations =  1.2

     total cpu time spent up to now is       86.7 secs

     total energy              =    -133.97315239 Ry
     Harris-Foulkes estimate   =    -133.97315253 Ry
     estimated scf accuracy    <       0.00000038 Ry

     iteration # 10     ecut=    90.00 Ry     beta= 0.20
     Davidson diagonalization with overlap
     ethr =  8.65E-10,  avg # of iterations =  3.7

     total cpu time spent up to now is       87.7 secs

     total energy              =    -133.97315244 Ry
     Harris-Foulkes estimate   =    -133.97315244 Ry
     estimated scf accuracy    <       0.00000002 Ry

     iteration # 11     ecut=    90.00 Ry     beta= 0.20
     Davidson diagonalization with overlap
     ethr =  5.56E-11,  avg # of iterations =  4.0

     total cpu time spent up to now is       88.9 secs

     End of self-consistent calculation

          k = 0.0000 0.0000 0.0000 ( 14623 PWs)   bands (ev):

   -17.9636 -17.6834 -15.3265 -15.3265 -11.2376 -11.0414  -8.7133  -8.1240
    -7.1233  -6.7399  -6.7399  -6.3807  -5.7192  -5.7192  -3.5830  -3.5830
    -0.8378  -0.7452  -0.1395   0.1647   0.9289   0.9289

          k = 0.0000 0.0000 0.4005 ( 14687 PWs)   bands (ev):

   -17.8524 -17.7053 -15.3032 -15.3032 -11.7715 -11.3862  -8.7295  -7.9607
    -6.9720  -6.9720  -6.0136  -5.6782  -5.6782  -5.5650  -3.5787  -3.5787
    -1.5333  -1.0994  -0.6773   0.0230   1.1895   1.1895

          k = 0.0000 0.3333 0.0000 ( 14674 PWs)   bands (ev):

   -17.8944 -17.7542 -15.3304 -15.3298 -11.1691 -11.0714  -8.5723  -8.2529
    -7.2556  -6.9571  -6.7127  -6.6768  -5.3544  -5.2763  -3.7199  -3.7094
    -0.5893  -0.5331  -0.2747  -0.0434   1.0104   1.0207

          k = 0.0000 0.3333 0.4005 ( 14700 PWs)   bands (ev):

   -17.8123 -17.7384 -15.3148 -15.3141 -11.6556 -11.4599  -8.6157  -8.2388
    -6.9754  -6.9742  -6.0698  -5.9628  -5.3951  -5.2580  -3.6771  -3.6493
    -1.3392  -1.1186  -0.4279  -0.0693   1.0572   1.0723

          k = 0.3333 0.3333 0.0000 ( 14745 PWs)   bands (ev):

   -17.8561 -17.7857 -15.3386 -15.3361 -11.1460 -11.0962  -8.5399  -8.3896
    -7.0781  -6.7557  -6.7387  -6.6316  -5.7219  -5.3111  -3.7651  -3.6880
    -0.5175  -0.3539  -0.2932  -0.0306   0.9984   1.0883

          k = 0.3333 0.3333 0.4005 ( 14669 PWs)   bands (ev):

   -17.7906 -17.7536 -15.3202 -15.3148 -11.6321 -11.5298  -8.4776  -8.2692
    -6.9966  -6.9875  -6.0082  -5.7787  -5.6944  -5.3224  -3.6855  -3.6325
    -1.3334  -1.2072  -0.2306  -0.0396   1.0172   1.1676

     highest occupied level (ev):     1.1895

!    total energy              =    -133.97315244 Ry
     Harris-Foulkes estimate   =    -133.97315244 Ry
     estimated scf accuracy    <          2.4E-09 Ry

     The total energy is the sum of the following terms:

     one-electron contribution =     -88.60104682 Ry
     hartree contribution      =      58.87941153 Ry
     xc contribution           =     -39.50497125 Ry
     ewald contribution        =     -64.68468072 Ry
     Dispersion Correction     =      -0.06186519 Ry

     convergence has been achieved in  11 iterations

     Forces acting on atoms (cartesian axes, Ry/au):

     atom    1 type  1   force =     0.00000000    0.00000000    0.00557195
     atom    2 type  1   force =     0.00000000    0.00000000   -0.00557195
     atom    3 type  2   force =     0.00000000    0.00000000   -0.00969579
     atom    4 type  2   force =     0.00000000    0.00000000    0.00969579
     atom    5 type  3   force =     0.00166747    0.00166747   -0.00238068
     atom    6 type  3   force =    -0.00166747   -0.00166747   -0.00238068
     atom    7 type  3   force =     0.00166747   -0.00166747    0.00238068
     atom    8 type  3   force =    -0.00166747    0.00166747    0.00238068
     atom    9 type  4   force =     0.00290782    0.00290782   -0.00941089
     atom   10 type  4   force =    -0.00290782   -0.00290782   -0.00941089
     atom   11 type  4   force =     0.00290782   -0.00290782    0.00941089
     atom   12 type  4   force =    -0.00290782    0.00290782    0.00941089
     atom   13 type  4   force =     0.00030171    0.00030171    0.00171510
     atom   14 type  4   force =    -0.00030171   -0.00030171    0.00171510
     atom   15 type  4   force =     0.00030171   -0.00030171   -0.00171510
     atom   16 type  4   force =    -0.00030171    0.00030171   -0.00171510

     Total force =     0.027008     Total SCF correction =     0.000108

     number of scf cycles    =   5
     number of bfgs steps    =   4

     energy   old            =    -133.9670710417 Ry
     energy   new            =    -133.9731524434 Ry

     CASE: energy  _new < energy  _old

     new trust radius        =       0.0106629546 bohr
     new conv_thr            =       0.0000000010 Ry


ATOMIC_POSITIONS (crystal)
C             0.0000000000        0.5000000000        0.3282107352
C             0.5000000000        0.0000000000        0.6717892398
O             0.0000000000        0.5000000000        0.6251036654
O             0.5000000000        0.0000000000        0.3748963346
N             0.1462327986        0.6462327466        0.1794200735
N             0.8537671694        0.3537672534        0.1794200735
N             0.6462327466        0.8537671694        0.8205799395
N             0.3537672534        0.1462327986        0.8205799395
H             0.2599936186        0.7599935976        0.2851172685
H             0.7400063604        0.2400063814        0.2851172685
H             0.7599935976        0.7400063604        0.7148827065
H             0.2400063814        0.2599936186        0.7148827065
H             0.1374519521        0.6374519631        0.9571494543
H             0.8625480369        0.3625480369        0.9571494543
H             0.6374519631        0.8625480369        0.0428505487
H             0.3625480369        0.1374519521        0.0428505487



     Writing output data file /tmp/ceresoli/urea.save/
     NEW-OLD atomic charge density approx. for the potential

     total cpu time spent up to now is       89.6 secs

     Self-consistent Calculation

     iteration #  1     ecut=    90.00 Ry     beta= 0.20
     Davidson diagonalization with overlap
     ethr =  1.00E-06,  avg # of iterations =  4.3

     total cpu time spent up to now is       91.3 secs

     total energy              =    -133.97371846 Ry
     Harris-Foulkes estimate   =    -133.97376333 Ry
     estimated scf accuracy    <       0.00021131 Ry

     iteration #  2     ecut=    90.00 Ry     beta= 0.20
     Davidson diagonalization with overlap
     ethr =  4.80E-07,  avg # of iterations =  1.2

     total cpu time spent up to now is       92.1 secs

     total energy              =    -133.97368048 Ry
     Harris-Foulkes estimate   =    -133.97372456 Ry
     estimated scf accuracy    <       0.00010186 Ry

     iteration #  3     ecut=    90.00 Ry     beta= 0.20
     Davidson diagonalization with overlap
     ethr =  2.31E-07,  avg # of iterations =  3.5

     total cpu time spent up to now is       93.2 secs

     total energy              =    -133.97371119 Ry
     Harris-Foulkes estimate   =    -133.97370433 Ry
     estimated scf accuracy    <       0.00002413 Ry

     iteration #  4     ecut=    90.00 Ry     beta= 0.20
     Davidson diagonalization with overlap
     ethr =  5.48E-08,  avg # of iterations =  3.0

     total cpu time spent up to now is       94.2 secs

     total energy              =    -133.97368657 Ry
     Harris-Foulkes estimate   =    -133.97371310 Ry
     estimated scf accuracy    <       0.00005117 Ry

     iteration #  5     ecut=    90.00 Ry     beta= 0.20
     Davidson diagonalization with overlap
     ethr =  5.48E-08,  avg # of iterations =  3.8

     total cpu time spent up to now is       95.5 secs

     total energy              =    -133.97370022 Ry
     Harris-Foulkes estimate   =    -133.97370078 Ry
     estimated scf accuracy    <       0.00000505 Ry

     iteration #  6     ecut=    90.00 Ry     beta= 0.20
     Davidson diagonalization with overlap
     ethr =  1.15E-08,  avg # of iterations =  1.7

     total cpu time spent up to now is       96.3 secs

     total energy              =    -133.97369931 Ry
     Harris-Foulkes estimate   =    -133.97370038 Ry
     estimated scf accuracy    <       0.00000324 Ry

     iteration #  7     ecut=    90.00 Ry     beta= 0.20
     Davidson diagonalization with overlap
     ethr =  7.37E-09,  avg # of iterations =  3.7

     total cpu time spent up to now is       97.3 secs

     total energy              =    -133.97369979 Ry
     Harris-Foulkes estimate   =    -133.97369978 Ry
     estimated scf accuracy    <       0.00000017 Ry

     iteration #  8     ecut=    90.00 Ry     beta= 0.20
     Davidson diagonalization with overlap
     ethr =  3.90E-10,  avg # of iterations =  4.8

     total cpu time spent up to now is       98.4 secs

     total energy              =    -133.97369973 Ry
     Harris-Foulkes estimate   =    -133.97369981 Ry
     estimated scf accuracy    <       0.00000018 Ry

     iteration #  9     ecut=    90.00 Ry     beta= 0.20
     Davidson diagonalization with overlap
     ethr =  3.90E-10,  avg # of iterations =  3.0

     total cpu time spent up to now is       99.5 secs

     total energy              =    -133.97369976 Ry
     Harris-Foulkes estimate   =    -133.97369976 Ry
     estimated scf accuracy    <       0.00000002 Ry

     iteration # 10     ecut=    90.00 Ry     beta= 0.20
     Davidson diagonalization with overlap
     ethr =  4.12E-11,  avg # of iterations =  3.0

     total cpu time spent up to now is      100.7 secs

     total energy              =    -133.97369976 Ry
     Harris-Foulkes estimate   =    -133.97369976 Ry
     estimated scf accuracy    <          6.7E-09 Ry

     iteration # 11     ecut=    90.00 Ry     beta= 0.20
     Davidson diagonalization with overlap
     ethr =  1.53E-11,  avg # of iterations =  2.5

     total cpu time spent up to now is      101.6 secs

     total energy              =    -133.97369976 Ry
     Harris-Foulkes estimate   =    -133.97369976 Ry
     estimated scf accuracy    <          2.4E-09 Ry

     iteration # 12     ecut=    90.00 Ry     beta= 0.20
     Davidson diagonalization with overlap
     ethr =  5.45E-12,  avg # of iterations =  4.2

     total cpu time spent up to now is      102.8 secs

     End of self-consistent calculation

          k = 0.0000 0.0000 0.0000 ( 14623 PWs)   bands (ev):

   -17.9604 -17.6789 -15.3283 -15.3283 -11.2726 -11.0784  -8.7160  -8.1301
    -7.1224  -6.7494  -6.7494  -6.3738  -5.7267  -5.7267  -3.5823  -3.5823
    -0.8404  -0.7605  -0.1493   0.1642   0.9315   0.9315

          k = 0.0000 0.0000 0.4005 ( 14687 PWs)   bands (ev):

   -17.8489 -17.7010 -15.3051 -15.3051 -11.8010 -11.4148  -8.7370  -7.9656
    -6.9809  -6.9809  -6.0222  -5.6851  -5.6851  -5.5747  -3.5781  -3.5781
    -1.5361  -1.0974  -0.6803   0.0230   1.1809   1.1809

          k = 0.0000 0.3333 0.0000 ( 14674 PWs)   bands (ev):

   -17.8910 -17.7501 -15.3321 -15.3316 -11.2050 -11.1083  -8.5758  -8.2583
    -7.2526  -6.9547  -6.7221  -6.6841  -5.3631  -5.2837  -3.7193  -3.7086
    -0.6013  -0.5351  -0.2843  -0.0441   1.0141   1.0242

          k = 0.0000 0.3333 0.4005 ( 14700 PWs)   bands (ev):

   -17.8086 -17.7343 -15.3167 -15.3159 -11.6853 -11.4893  -8.6211  -8.2429
    -6.9842  -6.9830  -6.0779  -5.9710  -5.4048  -5.2683  -3.6762  -3.6485
    -1.3397  -1.1169  -0.4303  -0.0702   1.0498   1.0649

          k = 0.3333 0.3333 0.0000 ( 14745 PWs)   bands (ev):

   -17.8525 -17.7817 -15.3405 -15.3379 -11.1820 -11.1327  -8.5440  -8.3943
    -7.0752  -6.7650  -6.7444  -6.6308  -5.7293  -5.3192  -3.7645  -3.6876
    -0.5296  -0.3651  -0.2949  -0.0316   1.0031   1.0929

          k = 0.3333 0.3333 0.4005 ( 14669 PWs)   bands (ev):

   -17.7868 -17.7496 -15.3221 -15.3166 -11.6614 -11.5590  -8.4832  -8.2748
    -7.0053  -6.9962  -6.0161  -5.7880  -5.7010  -5.3324  -3.6848  -3.6321
    -1.3338  -1.2063  -0.2326  -0.0407   1.0095   1.1589

     highest occupied level (ev):     1.1809

!    total energy              =    -133.97369976 Ry
     Harris-Foulkes estimate   =    -133.97369976 Ry
     estimated scf accuracy    <          2.2E-10 Ry

     The total energy is the sum of the following terms:

     one-electron contribution =     -88.65872621 Ry
     hartree contribution      =      58.90461245 Ry
     xc contribution           =     -39.51442413 Ry
     ewald contribution        =     -64.64329479 Ry
     Dispersion Correction     =      -0.06186707 Ry

     convergence has been achieved in  12 iterations

     Forces acting on atoms (cartesian axes, Ry/au):

     atom    1 type  1   force =     0.00000000    0.00000000   -0.00048748
     atom    2 type  1   force =     0.00000000    0.00000000    0.00048748
     atom    3 type  2   force =     0.00000000    0.00000000   -0.00445065
     atom    4 type  2   force =     0.00000000    0.00000000    0.00445065
     atom    5 type  3   force =     0.00042320    0.00042320   -0.00052948
     atom    6 type  3   force =    -0.00042320   -0.00042320   -0.00052948
     atom    7 type  3   force =     0.00042320   -0.00042320    0.00052948
     atom    8 type  3   force =    -0.00042320    0.00042320    0.00052948
     atom    9 type  4   force =     0.00307387    0.00307387   -0.00821738
     atom   10 type  4   force =    -0.00307387   -0.00307387   -0.00821738
     atom   11 type  4   force =     0.00307387   -0.00307387    0.00821738
     atom   12 type  4   force =    -0.00307387    0.00307387    0.00821738
     atom   13 type  4   force =     0.00008323    0.00008323   -0.00074039
     atom   14 type  4   force =    -0.00008323   -0.00008323   -0.00074039
     atom   15 type  4   force =     0.00008323   -0.00008323    0.00074039
     atom   16 type  4   force =    -0.00008323    0.00008323    0.00074039

     Total force =     0.019763     Total SCF correction =     0.000031

     number of scf cycles    =   6
     number of bfgs steps    =   5

     energy   old            =    -133.9731524434 Ry
     energy   new            =    -133.9736997617 Ry

     CASE: energy  _new < energy  _old

     new trust radius        =       0.0117292501 bohr
     new conv_thr            =       0.0000000005 Ry


ATOMIC_POSITIONS (crystal)
C             0.0000000000        0.5000000000        0.3280927494
C             0.5000000000        0.0000000000        0.6719072256
O             0.0000000000        0.5000000000        0.6245466027
O             0.5000000000        0.0000000000        0.3754533973
N             0.1463062917        0.6463062397        0.1792169303
N             0.8536936763        0.3536937603        0.1792169303
N             0.6463062397        0.8536936763        0.8207830827
N             0.3536937603        0.1463062917        0.8207830827
H             0.2603508643        0.7603508433        0.2839482032
H             0.7396491147        0.2396491357        0.2839482032
H             0.7603508433        0.7396491147        0.7160517718
H             0.2396491357        0.2603508643        0.7160517718
H             0.1374640020        0.6374640130        0.9572105961
H             0.8625359870        0.3625359870        0.9572105961
H             0.6374640130        0.8625359870        0.0427894069
H             0.3625359870        0.1374640020        0.0427894069



     Writing output data file /tmp/ceresoli/urea.save/
     NEW-OLD atomic charge density approx. for the potential

     total cpu time spent up to now is      103.5 secs

     Self-consistent Calculation

     iteration #  1     ecut=    90.00 Ry     beta= 0.20
     Davidson diagonalization with overlap
     ethr =  1.00E-06,  avg # of iterations =  3.0

     total cpu time spent up to now is      105.0 secs

     total energy              =    -133.97416041 Ry
     Harris-Foulkes estimate   =    -133.97419817 Ry
     estimated scf accuracy    <       0.00018679 Ry

     iteration #  2     ecut=    90.00 Ry     beta= 0.20
     Davidson diagonalization with overlap
     ethr =  4.25E-07,  avg # of iterations =  2.2

     total cpu time spent up to now is      105.9 secs

     total energy              =    -133.97412981 Ry
     Harris-Foulkes estimate   =    -133.97416699 Ry
     estimated scf accuracy    <       0.00009230 Ry

     iteration #  3     ecut=    90.00 Ry     beta= 0.20
     Davidson diagonalization with overlap
     ethr =  2.10E-07,  avg # of iterations =  2.3

     total cpu time spent up to now is      106.9 secs

     total energy              =    -133.97414345 Ry
     Harris-Foulkes estimate   =    -133.97414550 Ry
     estimated scf accuracy    <       0.00001264 Ry

     iteration #  4     ecut=    90.00 Ry     beta= 0.20
     Davidson diagonalization with overlap
     ethr =  2.87E-08,  avg # of iterations =  3.3

     total cpu time spent up to now is      107.8 secs

     total energy              =    -133.97414250 Ry
     Harris-Foulkes estimate   =    -133.97414450 Ry
     estimated scf accuracy    <       0.00000690 Ry

     iteration #  5     ecut=    90.00 Ry     beta= 0.20
     Davidson diagonalization with overlap
     ethr =  1.57E-08,  avg # of iterations =  3.5

     total cpu time spent up to now is      109.0 secs

     total energy              =    -133.97414375 Ry
     Harris-Foulkes estimate   =    -133.97414434 Ry
     estimated scf accuracy    <       0.00000195 Ry

     iteration #  6     ecut=    90.00 Ry     beta= 0.20
     Davidson diagonalization with overlap
     ethr =  4.44E-09,  avg # of iterations =  3.8

     total cpu time spent up to now is      109.9 secs

     total energy              =    -133.97414372 Ry
     Harris-Foulkes estimate   =    -133.97414394 Ry
     estimated scf accuracy    <       0.00000055 Ry

     iteration #  7     ecut=    90.00 Ry     beta= 0.20
     Davidson diagonalization with overlap
     ethr =  1.26E-09,  avg # of iterations =  4.5

     total cpu time spent up to now is      111.2 secs

     total energy              =    -133.97414392 Ry
     Harris-Foulkes estimate   =    -133.97414403 Ry
     estimated scf accuracy    <       0.00000045 Ry

     iteration #  8     ecut=    90.00 Ry     beta= 0.20
     Davidson diagonalization with overlap
     ethr =  1.01E-09,  avg # of iterations =  1.5

     total cpu time spent up to now is      112.1 secs

     total energy              =    -133.97414387 Ry
     Harris-Foulkes estimate   =    -133.97414394 Ry
     estimated scf accuracy    <       0.00000016 Ry

     iteration #  9     ecut=    90.00 Ry     beta= 0.20
     Davidson diagonalization with overlap
     ethr =  3.61E-10,  avg # of iterations =  4.5

     total cpu time spent up to now is      113.3 secs

     total energy              =    -133.97414391 Ry
     Harris-Foulkes estimate   =    -133.97414392 Ry
     estimated scf accuracy    <       0.00000002 Ry

     iteration # 10     ecut=    90.00 Ry     beta= 0.20
     Davidson diagonalization with overlap
     ethr =  3.99E-11,  avg # of iterations =  3.0

     total cpu time spent up to now is      114.4 secs

     total energy              =    -133.97414392 Ry
     Harris-Foulkes estimate   =    -133.97414392 Ry
     estimated scf accuracy    <          9.8E-10 Ry

     iteration # 11     ecut=    90.00 Ry     beta= 0.20
     Davidson diagonalization with overlap
     ethr =  2.22E-12,  avg # of iterations =  4.7

     total cpu time spent up to now is      115.6 secs

     End of self-consistent calculation

          k = 0.0000 0.0000 0.0000 ( 14623 PWs)   bands (ev):

   -17.9585 -17.6761 -15.3294 -15.3294 -11.2913 -11.0975  -8.7216  -8.1347
    -7.1202  -6.7549  -6.7549  -6.3629  -5.7332  -5.7332  -3.5826  -3.5826
    -0.8429  -0.7692  -0.1516   0.1635   0.9341   0.9341

          k = 0.0000 0.0000 0.4005 ( 14687 PWs)   bands (ev):

   -17.8468 -17.6983 -15.3062 -15.3062 -11.8169 -11.4287  -8.7457  -7.9698
    -6.9849  -6.9849  -6.0221  -5.6928  -5.6928  -5.5735  -3.5783  -3.5783
    -1.5393  -1.0953  -0.6833   0.0227   1.1767   1.1767

          k = 0.0000 0.3333 0.0000 ( 14674 PWs)   bands (ev):

   -17.8888 -17.7475 -15.3332 -15.3326 -11.2241 -11.1275  -8.5813  -8.2636
    -7.2501  -6.9530  -6.7259  -6.6844  -5.3698  -5.2889  -3.7194  -3.7085
    -0.6076  -0.5371  -0.2876  -0.0451   1.0175   1.0274

          k = 0.0000 0.3333 0.4005 ( 14700 PWs)   bands (ev):

   -17.8064 -17.7318 -15.3178 -15.3171 -11.7011 -11.5041  -8.6280  -8.2475
    -6.9882  -6.9870  -6.0793  -5.9737  -5.4119  -5.2738  -3.6760  -3.6485
    -1.3409  -1.1155  -0.4327  -0.0711   1.0459   1.0610

          k = 0.3333 0.3333 0.0000 ( 14745 PWs)   bands (ev):

   -17.8502 -17.7793 -15.3415 -15.3390 -11.2009 -11.1518  -8.5494  -8.3994
    -7.0727  -6.7704  -6.7456  -6.6254  -5.7355  -5.3250  -3.7646  -3.6882
    -0.5355  -0.3696  -0.2966  -0.0329   1.0071   1.0967

          k = 0.3333 0.3333 0.4005 ( 14669 PWs)   bands (ev):

   -17.7845 -17.7471 -15.3232 -15.3177 -11.6768 -11.5740  -8.4896  -8.2805
    -7.0091  -7.0001  -6.0182  -5.7877  -5.7087  -5.3383  -3.6847  -3.6325
    -1.3346  -1.2057  -0.2346  -0.0419   1.0053   1.1544

     highest occupied level (ev):     1.1767

!    total energy              =    -133.97414392 Ry
     Harris-Foulkes estimate   =    -133.97414392 Ry
     estimated scf accuracy    <          3.0E-10 Ry

     The total energy is the sum of the following terms:

     one-electron contribution =     -88.68163993 Ry
     hartree contribution      =      58.91382296 Ry
     xc contribution           =     -39.51894989 Ry
     ewald contribution        =     -64.62549560 Ry
     Dispersion Correction     =      -0.06188146 Ry

     convergence has been achieved in  11 iterations

     Forces acting on atoms (cartesian axes, Ry/au):

     atom    1 type  1   force =     0.00000000    0.00000000   -0.00278565
     atom    2 type  1   force =     0.00000000    0.00000000    0.00278565
     atom    3 type  2   force =     0.00000000    0.00000000   -0.00170757
     atom    4 type  2   force =     0.00000000    0.00000000    0.00170757
     atom    5 type  3   force =    -0.00017025   -0.00017025   -0.00042489
     atom    6 type  3   force =     0.00017025    0.00017025   -0.00042489
     atom    7 type  3   force =    -0.00017025    0.00017025    0.00042489
     atom    8 type  3   force =     0.00017025   -0.00017025    0.00042489
     atom    9 type  4   force =     0.00290154    0.00290154   -0.00703749
     atom   10 type  4   force =    -0.00290154   -0.00290154   -0.00703749
     atom   11 type  4   force =     0.00290154   -0.00290154    0.00703749
     atom   12 type  4   force =    -0.00290154    0.00290154    0.00703749
     atom   13 type  4   force =    -0.00011052   -0.00011052   -0.00201960
     atom   14 type  4   force =     0.00011052    0.00011052   -0.00201960
     atom   15 type  4   force =    -0.00011052    0.00011052    0.00201960
     atom   16 type  4   force =     0.00011052   -0.00011052    0.00201960

     Total force =     0.017441     Total SCF correction =     0.000030

     number of scf cycles    =   7
     number of bfgs steps    =   6

     energy   old            =    -133.9736997617 Ry
     energy   new            =    -133.9741439169 Ry

     CASE: energy  _new < energy  _old

     new trust radius        =       0.0175938751 bohr
     new conv_thr            =       0.0000000004 Ry


ATOMIC_POSITIONS (crystal)
C             0.0000000000        0.5000000000        0.3278087673
C             0.5000000000        0.0000000000        0.6721912077
O             0.0000000000        0.5000000000        0.6239165906
O             0.5000000000        0.0000000000        0.3760834094
N             0.1463859788        0.6463859268        0.1788497224
N             0.8536139892        0.3536140732        0.1788497224
N             0.6463859268        0.8536139892        0.8211502906
N             0.3536140732        0.1463859788        0.8211502906
H             0.2609148652        0.7609148442        0.2822202608
H             0.7390851138        0.2390851348        0.2822202608
H             0.7609148442        0.7390851138        0.7177797142
H             0.2390851348        0.2609148652        0.7177797142
H             0.1374656876        0.6374656986        0.9571033741
H             0.8625343014        0.3625343014        0.9571033741
H             0.6374656986        0.8625343014        0.0428966289
H             0.3625343014        0.1374656876        0.0428966289



     Writing output data file /tmp/ceresoli/urea.save/
     NEW-OLD atomic charge density approx. for the potential

     total cpu time spent up to now is      116.4 secs

     Self-consistent Calculation

     iteration #  1     ecut=    90.00 Ry     beta= 0.20
     Davidson diagonalization with overlap
     ethr =  1.00E-06,  avg # of iterations =  3.5

     total cpu time spent up to now is      118.0 secs

     total energy              =    -133.97473874 Ry
     Harris-Foulkes estimate   =    -133.97482394 Ry
     estimated scf accuracy    <       0.00041735 Ry

     iteration #  2     ecut=    90.00 Ry     beta= 0.20
     Davidson diagonalization with overlap
     ethr =  9.49E-07,  avg # of iterations =  1.0

     total cpu time spent up to now is      118.8 secs

     total energy              =    -133.97466165 Ry
     Harris-Foulkes estimate   =    -133.97474796 Ry
     estimated scf accuracy    <       0.00020555 Ry

     iteration #  3     ecut=    90.00 Ry     beta= 0.20
     Davidson diagonalization with overlap
     ethr =  4.67E-07,  avg # of iterations =  2.3

     total cpu time spent up to now is      119.8 secs

     total energy              =    -133.97469966 Ry
     Harris-Foulkes estimate   =    -133.97470282 Ry
     estimated scf accuracy    <       0.00003114 Ry

     iteration #  4     ecut=    90.00 Ry     beta= 0.20
     Davidson diagonalization with overlap
     ethr =  7.08E-08,  avg # of iterations =  3.0

     total cpu time spent up to now is      120.7 secs

     total energy              =    -133.97469407 Ry
     Harris-Foulkes estimate   =    -133.97470132 Ry
     estimated scf accuracy    <       0.00002454 Ry

     iteration #  5     ecut=    90.00 Ry     beta= 0.20
     Davidson diagonalization with overlap
     ethr =  5.58E-08,  avg # of iterations =  2.7

     total cpu time spent up to now is      121.6 secs

     total energy              =    -133.97469703 Ry
     Harris-Foulkes estimate   =    -133.97469688 Ry
     estimated scf accuracy    <       0.00000303 Ry

     iteration #  6     ecut=    90.00 Ry     beta= 0.20
     Davidson diagonalization with overlap
     ethr =  6.88E-09,  avg # of iterations =  4.2

     total cpu time spent up to now is      122.9 secs

     total energy              =    -133.97469720 Ry
     Harris-Foulkes estimate   =    -133.97469857 Ry
     estimated scf accuracy    <       0.00000549 Ry

     iteration #  7     ecut=    90.00 Ry     beta= 0.20
     Davidson diagonalization with overlap
     ethr =  6.88E-09,  avg # of iterations =  2.3

     total cpu time spent up to now is      123.8 secs

     total energy              =    -133.97469660 Ry
     Harris-Foulkes estimate   =    -133.97469748 Ry
     estimated scf accuracy    <       0.00000176 Ry

     iteration #  8     ecut=    90.00 Ry     beta= 0.20
     Davidson diagonalization with overlap
     ethr =  3.99E-09,  avg # of iterations =  3.3

     total cpu time spent up to now is      125.0 secs

     total energy              =    -133.97469706 Ry
     Harris-Foulkes estimate   =    -133.97469704 Ry
     estimated scf accuracy    <       0.00000012 Ry

     iteration #  9     ecut=    90.00 Ry     beta= 0.20
     Davidson diagonalization with overlap
     ethr =  2.84E-10,  avg # of iterations =  5.3

     total cpu time spent up to now is      126.0 secs

     total energy              =    -133.97469705 Ry
     Harris-Foulkes estimate   =    -133.97469709 Ry
     estimated scf accuracy    <       0.00000017 Ry

     iteration # 10     ecut=    90.00 Ry     beta= 0.20
     Davidson diagonalization with overlap
[...]
     Harris-Foulkes estimate   =    -133.98493144 Ry
     estimated scf accuracy    <       0.00005119 Ry

     iteration #  5     ecut=    90.00 Ry     beta= 0.20
     Davidson diagonalization with overlap
     ethr =  1.16E-07,  avg # of iterations =  1.5

     total cpu time spent up to now is      390.6 secs

     total energy              =    -133.98492489 Ry
     Harris-Foulkes estimate   =    -133.98493090 Ry
     estimated scf accuracy    <       0.00001598 Ry

     iteration #  6     ecut=    90.00 Ry     beta= 0.20
     Davidson diagonalization with overlap
     ethr =  3.63E-08,  avg # of iterations =  4.2

     total cpu time spent up to now is      391.7 secs

     total energy              =    -133.98492784 Ry
     Harris-Foulkes estimate   =    -133.98492793 Ry
     estimated scf accuracy    <       0.00000080 Ry

     iteration #  7     ecut=    90.00 Ry     beta= 0.20
     Davidson diagonalization with overlap
     ethr =  1.82E-09,  avg # of iterations =  5.2

     total cpu time spent up to now is      392.9 secs

     total energy              =    -133.98492789 Ry
     Harris-Foulkes estimate   =    -133.98492807 Ry
     estimated scf accuracy    <       0.00000055 Ry

     iteration #  8     ecut=    90.00 Ry     beta= 0.20
     Davidson diagonalization with overlap
     ethr =  1.24E-09,  avg # of iterations =  3.0

     total cpu time spent up to now is      394.1 secs

     total energy              =    -133.98492797 Ry
     Harris-Foulkes estimate   =    -133.98492807 Ry
     estimated scf accuracy    <       0.00000030 Ry

     iteration #  9     ecut=    90.00 Ry     beta= 0.20
     Davidson diagonalization with overlap
     ethr =  6.73E-10,  avg # of iterations =  3.3

     total cpu time spent up to now is      395.2 secs

     total energy              =    -133.98492799 Ry
     Harris-Foulkes estimate   =    -133.98492803 Ry
     estimated scf accuracy    <       0.00000008 Ry

     iteration # 10     ecut=    90.00 Ry     beta= 0.20
     Davidson diagonalization with overlap
     ethr =  1.80E-10,  avg # of iterations =  3.0

     total cpu time spent up to now is      396.3 secs

     total energy              =    -133.98492800 Ry
     Harris-Foulkes estimate   =    -133.98492802 Ry
     estimated scf accuracy    <       0.00000004 Ry

     iteration # 11     ecut=    90.00 Ry     beta= 0.20
     Davidson diagonalization with overlap
     ethr =  8.47E-11,  avg # of iterations =  3.3

     total cpu time spent up to now is      397.3 secs

     total energy              =    -133.98492801 Ry
     Harris-Foulkes estimate   =    -133.98492801 Ry
     estimated scf accuracy    <          1.1E-09 Ry

     iteration # 12     ecut=    90.00 Ry     beta= 0.20
     Davidson diagonalization with overlap
     ethr =  2.59E-12,  avg # of iterations =  5.5

     total cpu time spent up to now is      398.7 secs

     total energy              =    -133.98492801 Ry
     Harris-Foulkes estimate   =    -133.98492801 Ry
     estimated scf accuracy    <          7.1E-10 Ry

     iteration # 13     ecut=    90.00 Ry     beta= 0.20
     Davidson diagonalization with overlap
     ethr =  1.61E-12,  avg # of iterations =  3.3

     total cpu time spent up to now is      399.8 secs

     End of self-consistent calculation

          k = 0.0000 0.0000 0.0000 ( 14623 PWs)   bands (ev):

   -17.9848 -17.6530 -15.3675 -15.3675 -11.1533 -11.1154  -8.5450  -8.3834
    -7.2329  -6.7939  -6.7939  -6.3738  -5.6909  -5.6909  -3.5744  -3.5744
    -1.0163  -0.9339  -0.1237   0.3145   0.9196   0.9196

          k = 0.0000 0.0000 0.4005 ( 14687 PWs)   bands (ev):

   -17.8992 -17.6488 -15.3444 -15.3444 -11.6929 -11.4504  -8.7749  -8.0403
    -7.0259  -7.0259  -6.0410  -5.6351  -5.6351  -5.6274  -3.5860  -3.5860
    -1.6587  -1.1058  -0.9206   0.2489   1.1638   1.1638

          k = 0.0000 0.3333 0.0000 ( 14674 PWs)   bands (ev):

   -17.9044 -17.7386 -15.3674 -15.3671 -11.1407 -11.1211  -8.4720  -8.3592
    -7.3021  -6.9146  -6.7811  -6.7638  -5.4093  -5.3471  -3.6866  -3.6846
    -0.7383  -0.6315  -0.3371   0.0248   1.0215   1.0262

          k = 0.0000 0.3333 0.4005 ( 14700 PWs)   bands (ev):

   -17.8358 -17.7103 -15.3503 -15.3495 -11.6267 -11.5040  -8.6280  -8.2617
    -7.0197  -7.0182  -6.1162  -5.9856  -5.4124  -5.3257  -3.6550  -3.6371
    -1.4534  -1.1774  -0.5713   0.0172   1.1139   1.1253

          k = 0.3333 0.3333 0.0000 ( 14745 PWs)   bands (ev):

   -17.8591 -17.7758 -15.3802 -15.3735 -11.1318 -11.1214  -8.5095  -8.4233
    -7.1044  -6.8151  -6.8047  -6.7168  -5.6884  -5.3737  -3.7240  -3.6650
    -0.6313  -0.4238  -0.3640  -0.0209   0.9899   1.0221

          k = 0.3333 0.3333 0.4005 ( 14669 PWs)   bands (ev):

   -17.8006 -17.7376 -15.3565 -15.3559 -11.6119 -11.5480  -8.5028  -8.3128
    -7.0539  -7.0334  -6.0432  -5.8366  -5.6416  -5.3646  -3.6646  -3.6397
    -1.4106  -1.2691  -0.3275  -0.0165   1.0635   1.1436

     highest occupied level (ev):     1.1638

!    total energy              =    -133.98492801 Ry
     Harris-Foulkes estimate   =    -133.98492801 Ry
     estimated scf accuracy    <          1.8E-11 Ry

     The total energy is the sum of the following terms:

     one-electron contribution =     -89.91920603 Ry
     hartree contribution      =      59.47864595 Ry
     xc contribution           =     -39.47198523 Ry
     ewald contribution        =     -64.00641378 Ry
     Dispersion Correction     =      -0.06596891 Ry

     convergence has been achieved in  13 iterations

     Forces acting on atoms (cartesian axes, Ry/au):

     atom    1 type  1   force =     0.00000000    0.00000000    0.00005755
     atom    2 type  1   force =     0.00000000    0.00000000   -0.00005755
     atom    3 type  2   force =     0.00000000    0.00000000    0.00280466
     atom    4 type  2   force =     0.00000000    0.00000000   -0.00280466
     atom    5 type  3   force =    -0.00087643   -0.00087643    0.00013047
     atom    6 type  3   force =     0.00087643    0.00087643    0.00013047
     atom    7 type  3   force =    -0.00087643    0.00087643   -0.00013047
     atom    8 type  3   force =     0.00087643   -0.00087643   -0.00013047
     atom    9 type  4   force =    -0.00071011   -0.00071011   -0.00096364
     atom   10 type  4   force =     0.00071011    0.00071011   -0.00096364
     atom   11 type  4   force =    -0.00071011    0.00071011    0.00096364
     atom   12 type  4   force =     0.00071011   -0.00071011    0.00096364
     atom   13 type  4   force =     0.00059927    0.00059927   -0.00070791
     atom   14 type  4   force =    -0.00059927   -0.00059927   -0.00070791
     atom   15 type  4   force =     0.00059927   -0.00059927    0.00070791
     atom   16 type  4   force =    -0.00059927    0.00059927    0.00070791

     Total force =     0.005880     Total SCF correction =     0.000005

     number of scf cycles    =  23
     number of bfgs steps    =  22

     energy   old            =    -133.9847395293 Ry
     energy   new            =    -133.9849280084 Ry

     CASE: energy  _new < energy  _old

     new trust radius        =       0.0102753159 bohr
     new conv_thr            =       0.0000000002 Ry


ATOMIC_POSITIONS (crystal)
C             0.0000000000        0.5000000000        0.2733273332
C             0.5000000000        0.0000000000        0.7266726418
O             0.0000000000        0.5000000000        0.5704385387
O             0.5000000000        0.0000000000        0.4295614613
N             0.1467088268        0.6467087748        0.1243744418
N             0.8532911412        0.3532912252        0.1243744418
N             0.6467087748        0.8532911412        0.8756255712
N             0.3532912252        0.1467088268        0.8756255712
H             0.2595931521        0.7595931311        0.2310715190
H             0.7404068269        0.2404068479        0.2310715190
H             0.7595931311        0.7404068269        0.7689284560
H             0.2404068479        0.2595931521        0.7689284560
H             0.1381443288        0.6381443398        0.9024685081
H             0.8618556602        0.3618556602        0.9024685081
H             0.6381443398        0.8618556602        0.0975314949
H             0.3618556602        0.1381443288        0.0975314949



     Writing output data file /tmp/ceresoli/urea.save/
     NEW-OLD atomic charge density approx. for the potential

     total cpu time spent up to now is      400.7 secs

     Self-consistent Calculation

     iteration #  1     ecut=    90.00 Ry     beta= 0.20
     Davidson diagonalization with overlap
     ethr =  1.00E-06,  avg # of iterations =  4.0

     total cpu time spent up to now is      402.6 secs

     total energy              =    -133.98498332 Ry
     Harris-Foulkes estimate   =    -133.98501301 Ry
     estimated scf accuracy    <       0.00018950 Ry

     iteration #  2     ecut=    90.00 Ry     beta= 0.20
     Davidson diagonalization with overlap
     ethr =  4.31E-07,  avg # of iterations =  1.0

     total cpu time spent up to now is      403.5 secs

     total energy              =    -133.98495428 Ry
     Harris-Foulkes estimate   =    -133.98498668 Ry
     estimated scf accuracy    <       0.00010053 Ry

     iteration #  3     ecut=    90.00 Ry     beta= 0.20
     Davidson diagonalization with overlap
     ethr =  2.28E-07,  avg # of iterations =  2.0

     total cpu time spent up to now is      404.6 secs

     total energy              =    -133.98496394 Ry
     Harris-Foulkes estimate   =    -133.98496855 Ry
     estimated scf accuracy    <       0.00001074 Ry

     iteration #  4     ecut=    90.00 Ry     beta= 0.20
     Davidson diagonalization with overlap
     ethr =  2.44E-08,  avg # of iterations =  4.5

     total cpu time spent up to now is      406.0 secs

     total energy              =    -133.98496671 Ry
     Harris-Foulkes estimate   =    -133.98496845 Ry
     estimated scf accuracy    <       0.00000643 Ry

     iteration #  5     ecut=    90.00 Ry     beta= 0.20
     Davidson diagonalization with overlap
     ethr =  1.46E-08,  avg # of iterations =  2.7

     total cpu time spent up to now is      407.0 secs

     total energy              =    -133.98496686 Ry
     Harris-Foulkes estimate   =    -133.98496722 Ry
     estimated scf accuracy    <       0.00000086 Ry

     iteration #  6     ecut=    90.00 Ry     beta= 0.20
     Davidson diagonalization with overlap
     ethr =  1.95E-09,  avg # of iterations =  3.8

     total cpu time spent up to now is      408.4 secs

     total energy              =    -133.98496724 Ry
     Harris-Foulkes estimate   =    -133.98496726 Ry
     estimated scf accuracy    <       0.00000026 Ry

     iteration #  7     ecut=    90.00 Ry     beta= 0.20
     Davidson diagonalization with overlap
     ethr =  5.94E-10,  avg # of iterations =  2.0

     total cpu time spent up to now is      409.3 secs

     total energy              =    -133.98496716 Ry
     Harris-Foulkes estimate   =    -133.98496725 Ry
     estimated scf accuracy    <       0.00000018 Ry

     iteration #  8     ecut=    90.00 Ry     beta= 0.20
     Davidson diagonalization with overlap
     ethr =  4.19E-10,  avg # of iterations =  3.8

     total cpu time spent up to now is      410.7 secs

     total energy              =    -133.98496721 Ry
     Harris-Foulkes estimate   =    -133.98496722 Ry
     estimated scf accuracy    <       0.00000002 Ry

     iteration #  9     ecut=    90.00 Ry     beta= 0.20
     Davidson diagonalization with overlap
     ethr =  5.51E-11,  avg # of iterations =  3.5

     total cpu time spent up to now is      411.9 secs

     total energy              =    -133.98496721 Ry
     Harris-Foulkes estimate   =    -133.98496721 Ry
     estimated scf accuracy    <          2.1E-09 Ry

     iteration # 10     ecut=    90.00 Ry     beta= 0.20
     Davidson diagonalization with overlap
     ethr =  4.88E-12,  avg # of iterations =  4.5

     total cpu time spent up to now is      413.2 secs

     total energy              =    -133.98496721 Ry
     Harris-Foulkes estimate   =    -133.98496721 Ry
     estimated scf accuracy    <          6.2E-10 Ry

     iteration # 11     ecut=    90.00 Ry     beta= 0.20
     Davidson diagonalization with overlap
     ethr =  1.41E-12,  avg # of iterations =  2.2

     total cpu time spent up to now is      414.3 secs

     total energy              =    -133.98496721 Ry
     Harris-Foulkes estimate   =    -133.98496721 Ry
     estimated scf accuracy    <          7.0E-10 Ry

     iteration # 12     ecut=    90.00 Ry     beta= 0.20
     Davidson diagonalization with overlap
     ethr =  1.41E-12,  avg # of iterations =  3.0

     total cpu time spent up to now is      415.6 secs

     End of self-consistent calculation

          k = 0.0000 0.0000 0.0000 ( 14623 PWs)   bands (ev):

   -17.9848 -17.6519 -15.3638 -15.3638 -11.1436 -11.1042  -8.5481  -8.3854
    -7.2456  -6.7926  -6.7926  -6.3791  -5.6825  -5.6825  -3.5723  -3.5723
    -1.0170  -0.9295  -0.1189   0.3192   0.9157   0.9157

          k = 0.0000 0.0000 0.4005 ( 14687 PWs)   bands (ev):

   -17.8997 -17.6471 -15.3406 -15.3406 -11.6849 -11.4441  -8.7774  -8.0431
    -7.0249  -7.0249  -6.0448  -5.6287  -5.6269  -5.6269  -3.5836  -3.5836
    -1.6600  -1.1065  -0.9221   0.2547   1.1636   1.1636

          k = 0.0000 0.3333 0.0000 ( 14674 PWs)   bands (ev):

   -17.9042 -17.7378 -15.3636 -15.3633 -11.1307 -11.1103  -8.4753  -8.3617
    -7.3104  -6.9182  -6.7795  -6.7624  -5.4029  -5.3413  -3.6848  -3.6828
    -0.7343  -0.6310  -0.3330   0.0279   1.0172   1.0217

          k = 0.0000 0.3333 0.4005 ( 14700 PWs)   bands (ev):

   -17.8358 -17.7092 -15.3464 -15.3457 -11.6192 -11.4974  -8.6305  -8.2643
    -7.0185  -7.0170  -6.1172  -5.9843  -5.4058  -5.3204  -3.6529  -3.6350
    -1.4553  -1.1789  -0.5714   0.0206   1.1145   1.1257

          k = 0.3333 0.3333 0.0000 ( 14745 PWs)   bands (ev):

   -17.8587 -17.7751 -15.3765 -15.3698 -11.1217 -11.1109  -8.5123  -8.4261
    -7.1112  -6.8139  -6.8052  -6.7227  -5.6797  -5.3676  -3.7220  -3.6626
    -0.6268  -0.4192  -0.3631  -0.0188   0.9838   1.0168

          k = 0.3333 0.3333 0.4005 ( 14669 PWs)   bands (ev):

   -17.8003 -17.7367 -15.3528 -15.3521 -11.6046 -11.5412  -8.5053  -8.3152
    -7.0529  -7.0323  -6.0433  -5.8390  -5.6331  -5.3589  -3.6625  -3.6373
    -1.4118  -1.2704  -0.3270  -0.0141   1.0636   1.1429

     highest occupied level (ev):     1.1636

!    total energy              =    -133.98496721 Ry
     Harris-Foulkes estimate   =    -133.98496721 Ry
     estimated scf accuracy    <          3.0E-11 Ry

     The total energy is the sum of the following terms:

     one-electron contribution =     -89.93939605 Ry
     hartree contribution      =      59.48920892 Ry
     xc contribution           =     -39.46866192 Ry
     ewald contribution        =     -64.00006921 Ry
     Dispersion Correction     =      -0.06604894 Ry

     convergence has been achieved in  12 iterations

     Forces acting on atoms (cartesian axes, Ry/au):

     atom    1 type  1   force =     0.00000000    0.00000000    0.00075115
     atom    2 type  1   force =     0.00000000    0.00000000   -0.00075115
     atom    3 type  2   force =     0.00000000    0.00000000    0.00001383
     atom    4 type  2   force =     0.00000000    0.00000000   -0.00001383
     atom    5 type  3   force =    -0.00028703   -0.00028703    0.00002895
     atom    6 type  3   force =     0.00028703    0.00028703    0.00002895
     atom    7 type  3   force =    -0.00028703    0.00028703   -0.00002895
     atom    8 type  3   force =     0.00028703   -0.00028703   -0.00002895
     atom    9 type  4   force =    -0.00062726   -0.00062726   -0.00052880
     atom   10 type  4   force =     0.00062726    0.00062726   -0.00052880
     atom   11 type  4   force =    -0.00062726    0.00062726    0.00052880
     atom   12 type  4   force =     0.00062726   -0.00062726    0.00052880
     atom   13 type  4   force =     0.00022387    0.00022387    0.00014736
     atom   14 type  4   force =    -0.00022387   -0.00022387    0.00014736
     atom   15 type  4   force =     0.00022387   -0.00022387   -0.00014736
     atom   16 type  4   force =    -0.00022387    0.00022387   -0.00014736

     Total force =     0.002558     Total SCF correction =     0.000012

     bfgs converged in  24 scf cycles and  23 bfgs steps
     (criteria: energy <  1.0E-04 Ry, force <  1.0E-03 Ry/Bohr)

     End of BFGS Geometry Optimization

     Final energy   =    -133.9849672098 Ry
Begin final coordinates

ATOMIC_POSITIONS (crystal)
C             0.0000000000        0.5000000000        0.2733273332
C             0.5000000000        0.0000000000        0.7266726418
O             0.0000000000        0.5000000000        0.5704385387
O             0.5000000000        0.0000000000        0.4295614613
N             0.1467088268        0.6467087748        0.1243744418
N             0.8532911412        0.3532912252        0.1243744418
N             0.6467087748        0.8532911412        0.8756255712
N             0.3532912252        0.1467088268        0.8756255712
H             0.2595931521        0.7595931311        0.2310715190
H             0.7404068269        0.2404068479        0.2310715190
H             0.7595931311        0.7404068269        0.7689284560
H             0.2404068479        0.2595931521        0.7689284560
H             0.1381443288        0.6381443398        0.9024685081
H             0.8618556602        0.3618556602        0.9024685081
H             0.6381443398        0.8618556602        0.0975314949
H             0.3618556602        0.1381443288        0.0975314949
End final coordinates



     Writing output data file /tmp/ceresoli/urea.save/
 
     init_run     :      0.92s CPU      0.97s WALL (       1 calls)
     electrons    :    384.59s CPU    396.96s WALL (      24 calls)
     update_pot   :      7.22s CPU      7.31s WALL (      23 calls)
     forces       :     10.27s CPU     10.35s WALL (      24 calls)

     Called by init_run:
     wfcinit      :      0.58s CPU      0.60s WALL (       1 calls)
     potinit      :      0.18s CPU      0.19s WALL (       1 calls)
     hinit0       :      0.13s CPU      0.14s WALL (       1 calls)

     Called by electrons:
     c_bands      :    299.20s CPU    308.97s WALL (     337 calls)
     sum_band     :     59.09s CPU     60.96s WALL (     337 calls)
     v_of_rho     :     16.55s CPU     16.98s WALL (     361 calls)
     mix_rho      :      4.62s CPU      4.76s WALL (     337 calls)

     Called by c_bands:
     init_us_2    :      4.78s CPU      4.99s WALL (    4194 calls)
     cegterg      :    293.90s CPU    303.22s WALL (    2022 calls)

     Called by sum_band:

     Called by *egterg:
     h_psi        :    235.62s CPU    243.82s WALL (    8896 calls)
     g_psi        :      1.78s CPU      1.82s WALL (    6868 calls)
     cdiaghg      :     11.55s CPU     11.93s WALL (    8752 calls)

     Called by h_psi:
     h_psi:calbec :      4.11s CPU      4.23s WALL (    8896 calls)
     vloc_psi     :    225.03s CPU    232.70s WALL (    8896 calls)
     add_vuspsi   :      3.55s CPU      3.76s WALL (    8896 calls)

     General routines
     calbec       :      4.27s CPU      4.38s WALL (    9472 calls)
     fft          :      6.46s CPU      6.72s WALL (    3657 calls)
     ffts         :      0.50s CPU      0.49s WALL (     337 calls)
     fftw         :    209.42s CPU    215.26s WALL (  295334 calls)
 
     Parallel routines
     fft_scatt_xy :     41.04s CPU     42.60s WALL (  299328 calls)
     fft_scatt_yz :     43.18s CPU     44.84s WALL (  299328 calls)
 
     PWSCF        :   6m43.35s CPU   6m56.05s WALL

 
   This run was terminated on:  12:36:42  17Dec2019            

=------------------------------------------------------------------------------=
   JOB DONE.
=------------------------------------------------------------------------------=
