
     Program PWSCF v.6.3rc starts on 28Jun2018 at 14:16:50 

     This program is part of the open-source Quantum ESPRESSO suite
     for quantum simulation of materials; please cite
         "P. Giannozzi et al., J. Phys.:Condens. Matter 21 395502 (2009);
         "P. Giannozzi et al., J. Phys.:Condens. Matter 29 465901 (2017);
          URL http://www.quantum-espresso.org", 
     in publications or presentations arising from this work. More details at
     http://www.quantum-espresso.org/quote

     Parallel version (MPI), running on     4 processors

     MPI processes distributed on     1 nodes
     R & G space division:  proc/nbgrp/npool/nimage =       4
     Waiting for input...
     Reading input from standard input
     Message from routine read_cards :
     DEPRECATED: no units specified in CELL_PARAMETERS card

     Current dimensions of program PWSCF are:
     Max number of different atomic species (ntypx) = 10
     Max number of k-points (npk) =  40000
     Max angular momentum in pseudopotentials (lmaxx) =  3

     Subspace diagonalization in iterative solution of the eigenvalue problem:
     a serial algorithm will be used

 
     Parallelization info
     --------------------
     sticks:   dense  smooth     PW     G-vecs:    dense   smooth      PW
     Min         296     296     90                 9074     9074    1534
     Max         298     298     91                 9075     9075    1539
     Sum        1189    1189    361                36297    36297    6145
 


     bravais-lattice index     =            0
     lattice parameter (alat)  =       4.6415  a.u.
     unit-cell volume          =     762.0804 (a.u.)^3
     number of atoms/cell      =            9
     number of atomic types    =            2
     number of electrons       =        48.00
     number of Kohn-Sham states=           24
     kinetic-energy cutoff     =      50.0000  Ry
     charge density cutoff     =     200.0000  Ry
     convergence threshold     =      1.0E-10
     mixing beta               =       0.7000
     number of iterations used =            8  plain     mixing
     Exchange-correlation      =  SLA  PW   PBX  PBC ( 1  4  3  4 0 0)

     celldm(1)=   4.641538  celldm(2)=   0.000000  celldm(3)=   0.000000
     celldm(4)=   0.000000  celldm(5)=   0.000000  celldm(6)=   0.000000

     crystal axes: (cart. coord. in units of alat)
               a(1) = (   1.000000  -1.732058   0.000000 )  
               a(2) = (   1.000000   1.732058   0.000000 )  
               a(3) = (   0.000000   0.000000   2.200000 )  

     reciprocal axes: (cart. coord. in units 2 pi/alat)
               b(1) = (  0.500000 -0.288674  0.000000 )  
               b(2) = (  0.500000  0.288674  0.000000 )  
               b(3) = (  0.000000  0.000000  0.454545 )  


     PseudoPot. # 1 for Si read from file:
     ./pseudo/Si.pbe-tm-gipaw.UPF
     MD5 check sum: 744ed8b2dc623e0d56f5dfff7afbe95f
     Pseudo is Norm-conserving, Zval =  4.0
     Generated by new atomic code, or converted to UPF format
     Using radial grid of 1141 points,  2 beta functions with: 
                l(1) =   0
                l(2) =   1

     PseudoPot. # 2 for O  read from file:
     ./pseudo/O.pbe-tm-gipaw.UPF
     MD5 check sum: 12b6f10dd62b8d732352127d12073df4
     Pseudo is Norm-conserving, Zval =  6.0
     Generated by new atomic code, or converted to UPF format
     Using radial grid of 1095 points,  1 beta functions with: 
                l(1) =   0

     atomic species   valence    mass     pseudopotential
        Si             4.00    28.08600     Si( 1.00)
        O              6.00    15.99900     O ( 1.00)

      2 Sym. Ops. (no inversion) found


                                    s                        frac. trans.

      isym =  1     identity                                     

 cryst.   s( 1) = (     1          0          0      )
                  (     0          1          0      )
                  (     0          0          1      )

 cart.    s( 1) = (  1.0000000  0.0000000  0.0000000 )
                  (  0.0000000  1.0000000  0.0000000 )
                  (  0.0000000  0.0000000  1.0000000 )


      isym =  2     180 deg rotation - cart. axis [1,0,0]        

 cryst.   s( 2) = (     0          1          0      )
                  (     1          0          0      )
                  (     0          0         -1      )

 cart.    s( 2) = (  1.0000000  0.0000000  0.0000000 )
                  (  0.0000000 -1.0000000  0.0000000 )
                  (  0.0000000  0.0000000 -1.0000000 )


   Cartesian axes

     site n.     atom                  positions (alat units)
         1           Si  tau(   1) = (   0.4701000  -0.8142405   0.7333333  )
         2           Si  tau(   2) = (   0.4701000   0.8142405   1.4666667  )
         3           Si  tau(   3) = (  -0.9402000   0.0000000   0.0000000  )
         4           O   tau(   4) = (   0.6813000  -0.2537465   0.4716800  )
         5           O   tau(   5) = (  -0.1209000   0.7168988   1.2050133  )
         6           O   tau(   6) = (  -0.5604000  -0.4631523   1.9383467  )
         7           O   tau(   7) = (   0.6813000   0.2537465  -0.4716800  )
         8           O   tau(   8) = (  -0.1209000  -0.7168988   0.9949867  )
         9           O   tau(   9) = (  -0.5604000   0.4631523   0.2616533  )

   Crystallographic axes

     site n.     atom                  positions (cryst. coord.)
         1           Si  tau(   1) = (  0.4701000  0.0000000  0.3333333  )
         2           Si  tau(   2) = (  0.0000000  0.4701000  0.6666667  )
         3           Si  tau(   3) = ( -0.4701000 -0.4701000  0.0000000  )
         4           O   tau(   4) = (  0.4139000  0.2674000  0.2144000  )
         5           O   tau(   5) = ( -0.2674000  0.1465000  0.5477333  )
         6           O   tau(   6) = ( -0.1465000 -0.4139000  0.8810667  )
         7           O   tau(   7) = (  0.2674000  0.4139000 -0.2144000  )
         8           O   tau(   8) = (  0.1465000 -0.2674000  0.4522667  )
         9           O   tau(   9) = ( -0.4139000 -0.1465000  0.1189333  )

     number of k points=    10
                       cart. coord. in units 2pi/alat
        k(    1) = (   0.1666667   0.0000000   0.0757576), wk =   0.2962963
        k(    2) = (   0.1666667   0.0000000  -0.2272727), wk =   0.1481481
        k(    3) = (  -0.1666667  -0.1924493   0.0757576), wk =   0.2962963
        k(    4) = (  -0.1666667  -0.1924493  -0.2272727), wk =   0.2962963
        k(    5) = (  -0.0000000  -0.0962246   0.0757576), wk =   0.1481481
        k(    6) = (  -0.0000000  -0.0962246  -0.2272727), wk =   0.1481481
        k(    7) = (  -0.5000000   0.0000000   0.0757576), wk =   0.1481481
        k(    8) = (  -0.5000000   0.0000000  -0.2272727), wk =   0.0740741
        k(    9) = (   0.1666667  -0.1924493  -0.0757576), wk =   0.2962963
        k(   10) = (   0.0000000  -0.0962246  -0.0757576), wk =   0.1481481

                       cryst. coord.
        k(    1) = (   0.1666667   0.1666667   0.1666667), wk =   0.2962963
        k(    2) = (   0.1666667   0.1666667  -0.5000000), wk =   0.1481481
        k(    3) = (   0.1666667  -0.5000000   0.1666667), wk =   0.2962963
        k(    4) = (   0.1666667  -0.5000000  -0.5000000), wk =   0.2962963
        k(    5) = (   0.1666667  -0.1666667   0.1666667), wk =   0.1481481
        k(    6) = (   0.1666667  -0.1666667  -0.5000000), wk =   0.1481481
        k(    7) = (  -0.5000000  -0.5000000   0.1666667), wk =   0.1481481
        k(    8) = (  -0.5000000  -0.5000000  -0.5000000), wk =   0.0740741
        k(    9) = (   0.5000000  -0.1666667  -0.1666667), wk =   0.2962963
        k(   10) = (   0.1666667  -0.1666667  -0.1666667), wk =   0.1481481

     Dense  grid:    36297 G-vectors     FFT dimensions: (  45,  45,  45)

     Dynamical RAM for                 wfc:       0.42 MB

     Dynamical RAM for     wfc (w. buffer):       4.58 MB

     Dynamical RAM for           str. fact:       0.28 MB

     Dynamical RAM for           local pot:       0.00 MB

     Dynamical RAM for          nlocal pot:       0.31 MB

     Dynamical RAM for                qrad:       0.14 MB

     Dynamical RAM for          rho,v,vnew:       0.97 MB

     Dynamical RAM for               rhoin:       0.32 MB

     Dynamical RAM for            rho*nmix:       2.22 MB

     Dynamical RAM for           G-vectors:       0.59 MB

     Dynamical RAM for          h,s,v(r/c):       0.42 MB

     Dynamical RAM for          <psi|beta>:       0.01 MB

     Dynamical RAM for                 psi:       1.67 MB

     Dynamical RAM for                hpsi:       1.67 MB

     Dynamical RAM for      wfcinit/wfcrot:       1.83 MB

     Estimated static dynamical RAM per process >      10.76 MB

     Estimated max dynamical RAM per process >      14.51 MB

     Estimated total dynamical RAM >      58.06 MB

     Initial potential from superposition of free atoms

     starting charge   40.41467, renormalised to   48.00000
     Starting wfcs are   51 randomized atomic wfcs

     total cpu time spent up to now is        2.2 secs

     Self-consistent Calculation

     iteration #  1     ecut=    50.00 Ry     beta= 0.70
     Davidson diagonalization with overlap
     ethr =  1.00E-04,  avg # of iterations =  4.0

     total cpu time spent up to now is        4.7 secs

     total energy              =    -216.22169714 Ry
     Harris-Foulkes estimate   =    -216.38904986 Ry
     estimated scf accuracy    <       0.47154168 Ry

     iteration #  2     ecut=    50.00 Ry     beta= 0.70
     Davidson diagonalization with overlap
     ethr =  9.82E-04,  avg # of iterations =  2.0

     total cpu time spent up to now is        7.1 secs

     total energy              =    -216.27797261 Ry
     Harris-Foulkes estimate   =    -216.32733607 Ry
     estimated scf accuracy    <       0.10553056 Ry

     iteration #  3     ecut=    50.00 Ry     beta= 0.70
     Davidson diagonalization with overlap
     ethr =  2.20E-04,  avg # of iterations =  2.0

     total cpu time spent up to now is        8.8 secs

     total energy              =    -216.30283153 Ry
     Harris-Foulkes estimate   =    -216.30665914 Ry
     estimated scf accuracy    <       0.01328927 Ry

     iteration #  4     ecut=    50.00 Ry     beta= 0.70
     Davidson diagonalization with overlap
     ethr =  2.77E-05,  avg # of iterations =  2.0

     total cpu time spent up to now is       10.9 secs

     total energy              =    -216.30518638 Ry
     Harris-Foulkes estimate   =    -216.30514758 Ry
     estimated scf accuracy    <       0.00009593 Ry

     iteration #  5     ecut=    50.00 Ry     beta= 0.70
     Davidson diagonalization with overlap
     ethr =  2.00E-07,  avg # of iterations =  2.0

     total cpu time spent up to now is       12.7 secs

     total energy              =    -216.30522471 Ry
     Harris-Foulkes estimate   =    -216.30522179 Ry
     estimated scf accuracy    <       0.00000445 Ry

     iteration #  6     ecut=    50.00 Ry     beta= 0.70
     Davidson diagonalization with overlap
     ethr =  9.28E-09,  avg # of iterations =  2.0

     total cpu time spent up to now is       17.0 secs

     total energy              =    -216.30522579 Ry
     Harris-Foulkes estimate   =    -216.30522540 Ry
     estimated scf accuracy    <       0.00000046 Ry

     iteration #  7     ecut=    50.00 Ry     beta= 0.70
     Davidson diagonalization with overlap
     ethr =  9.53E-10,  avg # of iterations =  2.0

     total cpu time spent up to now is       18.2 secs

     total energy              =    -216.30522592 Ry
     Harris-Foulkes estimate   =    -216.30522593 Ry
     estimated scf accuracy    <       0.00000003 Ry

     iteration #  8     ecut=    50.00 Ry     beta= 0.70
     Davidson diagonalization with overlap
     ethr =  6.97E-11,  avg # of iterations =  2.0

     total cpu time spent up to now is       21.0 secs

     total energy              =    -216.30522592 Ry
     Harris-Foulkes estimate   =    -216.30522592 Ry
     estimated scf accuracy    <          5.5E-10 Ry

     iteration #  9     ecut=    50.00 Ry     beta= 0.70
     Davidson diagonalization with overlap
     ethr =  1.15E-12,  avg # of iterations =  2.0

     total cpu time spent up to now is       23.8 secs

     End of self-consistent calculation

          k = 0.1667 0.0000 0.0758 (  4553 PWs)   bands (ev):

   -16.5038 -15.6490 -15.1061 -14.6170 -14.5866 -14.5511  -5.8909  -4.8712
    -3.3025  -2.8283  -2.5869  -2.3203  -0.5537  -0.1424   0.0280   0.2840
     0.5807   1.0200   1.1187   1.4017   1.6743   1.8251   2.2575   2.5520

     occupation numbers 
     1.0000   1.0000   1.0000   1.0000   1.0000   1.0000   1.0000   1.0000
     1.0000   1.0000   1.0000   1.0000   1.0000   1.0000   1.0000   1.0000
     1.0000   1.0000   1.0000   1.0000   1.0000   1.0000   1.0000   1.0000

          k = 0.1667 0.0000-0.2273 (  4560 PWs)   bands (ev):

   -16.2518 -16.0650 -14.9422 -14.6261 -14.5722 -14.5576  -6.1522  -4.1632
    -3.7995  -2.7561  -2.6978  -2.2217  -0.4747  -0.3966   0.2078   0.2640
     0.5917   1.0317   1.1822   1.3874   1.5478   2.0768   2.2320   2.3884

     occupation numbers 
     1.0000   1.0000   1.0000   1.0000   1.0000   1.0000   1.0000   1.0000
     1.0000   1.0000   1.0000   1.0000   1.0000   1.0000   1.0000   1.0000
     1.0000   1.0000   1.0000   1.0000   1.0000   1.0000   1.0000   1.0000

          k =-0.1667-0.1924 0.0758 (  4545 PWs)   bands (ev):

   -16.2776 -15.7810 -15.2252 -14.6300 -14.6061 -14.5650  -5.7528  -4.6517
    -3.6131  -2.8188  -2.5879  -2.1124  -0.4992  -0.2804  -0.0965   0.3355
     0.6159   0.8448   1.1728   1.3253   1.5869   1.9759   2.2087   2.5518

     occupation numbers 
     1.0000   1.0000   1.0000   1.0000   1.0000   1.0000   1.0000   1.0000
     1.0000   1.0000   1.0000   1.0000   1.0000   1.0000   1.0000   1.0000
     1.0000   1.0000   1.0000   1.0000   1.0000   1.0000   1.0000   1.0000

          k =-0.1667-0.1924-0.2273 (  4544 PWs)   bands (ev):

   -16.2106 -15.7984 -15.2783 -14.6561 -14.5859 -14.5777  -5.6105  -4.6148
    -3.8671  -2.6617  -2.5107  -2.3458  -0.6265  -0.4473   0.0820   0.4551
     0.6215   0.9361   1.4438   1.5295   1.6880   1.8700   2.0346   2.3013

     occupation numbers 
     1.0000   1.0000   1.0000   1.0000   1.0000   1.0000   1.0000   1.0000
     1.0000   1.0000   1.0000   1.0000   1.0000   1.0000   1.0000   1.0000
     1.0000   1.0000   1.0000   1.0000   1.0000   1.0000   1.0000   1.0000

          k =-0.0000-0.0962 0.0758 (  4560 PWs)   bands (ev):

   -16.6504 -15.6152 -14.9724 -14.5971 -14.5688 -14.5365  -6.0705  -4.9420
    -3.0956  -2.8507  -2.6519  -2.4320  -0.5087  -0.1425  -0.0001   0.3619
     0.7425   1.0444   1.1156   1.3358   1.6814   1.9052   2.2766   2.5201

     occupation numbers 
     1.0000   1.0000   1.0000   1.0000   1.0000   1.0000   1.0000   1.0000
     1.0000   1.0000   1.0000   1.0000   1.0000   1.0000   1.0000   1.0000
     1.0000   1.0000   1.0000   1.0000   1.0000   1.0000   1.0000   1.0000

          k =-0.0000-0.0962-0.2273 (  4538 PWs)   bands (ev):

   -16.2894 -16.2252 -14.7071 -14.6012 -14.5665 -14.5304  -6.5149  -3.8666
    -3.7062  -2.9068  -2.8587  -2.1175  -0.2633  -0.2468   0.0654   0.4579
     0.5314   0.9417   1.0117   1.2046   1.4676   2.2911   2.3213   2.4942

     occupation numbers 
     1.0000   1.0000   1.0000   1.0000   1.0000   1.0000   1.0000   1.0000
     1.0000   1.0000   1.0000   1.0000   1.0000   1.0000   1.0000   1.0000
     1.0000   1.0000   1.0000   1.0000   1.0000   1.0000   1.0000   1.0000

          k =-0.5000 0.0000 0.0758 (  4540 PWs)   bands (ev):

   -16.2721 -15.7959 -15.2120 -14.6347 -14.6028 -14.5672  -5.7378  -4.7381
    -3.4591  -2.8408  -2.6364  -2.1130  -0.4944  -0.3810   0.0376   0.2614
     0.6749   0.7995   1.0717   1.4544   1.6590   1.8470   2.2720   2.5411

     occupation numbers 
     1.0000   1.0000   1.0000   1.0000   1.0000   1.0000   1.0000   1.0000
     1.0000   1.0000   1.0000   1.0000   1.0000   1.0000   1.0000   1.0000
     1.0000   1.0000   1.0000   1.0000   1.0000   1.0000   1.0000   1.0000

          k =-0.5000 0.0000-0.2273 (  4536 PWs)   bands (ev):

   -16.2180 -15.7699 -15.3124 -14.6611 -14.5831 -14.5616  -5.6209  -4.6487
    -3.7853  -2.7272  -2.4557  -2.3449  -0.5930  -0.5738   0.1770   0.5085
     0.5213   1.0675   1.3497   1.4698   1.7302   1.7818   2.0215   2.4226

     occupation numbers 
     1.0000   1.0000   1.0000   1.0000   1.0000   1.0000   1.0000   1.0000
     1.0000   1.0000   1.0000   1.0000   1.0000   1.0000   1.0000   1.0000
     1.0000   1.0000   1.0000   1.0000   1.0000   1.0000   1.0000   1.0000

          k = 0.1667-0.1924-0.0758 (  4545 PWs)   bands (ev):

   -16.2753 -15.7893 -15.2146 -14.6336 -14.6082 -14.5640  -5.7523  -4.6500
    -3.6136  -2.8097  -2.5935  -2.1269  -0.5384  -0.2565  -0.0747   0.3972
     0.6011   0.8389   1.0723   1.3739   1.6281   1.9089   2.2807   2.5206

     occupation numbers 
     1.0000   1.0000   1.0000   1.0000   1.0000   1.0000   1.0000   1.0000
     1.0000   1.0000   1.0000   1.0000   1.0000   1.0000   1.0000   1.0000
     1.0000   1.0000   1.0000   1.0000   1.0000   1.0000   1.0000   1.0000

          k = 0.0000-0.0962-0.0758 (  4560 PWs)   bands (ev):

   -16.6508 -15.6109 -14.9827 -14.5970 -14.5569 -14.5419  -6.0709  -4.9417
    -3.1006  -2.8512  -2.6686  -2.4037  -0.4808  -0.1678   0.0058   0.3218
     0.6981   1.1153   1.1385   1.3133   1.7225   1.8600   2.2533   2.5466

     occupation numbers 
     1.0000   1.0000   1.0000   1.0000   1.0000   1.0000   1.0000   1.0000
     1.0000   1.0000   1.0000   1.0000   1.0000   1.0000   1.0000   1.0000
     1.0000   1.0000   1.0000   1.0000   1.0000   1.0000   1.0000   1.0000

     highest occupied level (ev):     2.5520

!    total energy              =    -216.30522592 Ry
     Harris-Foulkes estimate   =    -216.30522592 Ry
     estimated scf accuracy    <          7.0E-11 Ry

     The total energy is the sum of the following terms:

     one-electron contribution =    -104.22896349 Ry
     hartree contribution      =      77.75159130 Ry
     xc contribution           =     -50.86588929 Ry
     ewald contribution        =    -138.96196445 Ry

     convergence has been achieved in   9 iterations

     Forces acting on atoms (cartesian axes, Ry/au):

     atom    1 type  1   force =     0.00076920   -0.00130683    0.00001731
     atom    2 type  1   force =     0.00076920    0.00130683   -0.00001731
     atom    3 type  1   force =    -0.00151526    0.00000000    0.00000000
     atom    4 type  2   force =    -0.00645149    0.01288653    0.00461770
     atom    5 type  2   force =    -0.00790556   -0.01205440    0.00460276
     atom    6 type  2   force =     0.01434547   -0.00092226    0.00441219
     atom    7 type  2   force =    -0.00645149   -0.01288653   -0.00461770
     atom    8 type  2   force =    -0.00790556    0.01205440   -0.00460276
     atom    9 type  2   force =     0.01434547    0.00092226   -0.00441219
     The non-local contrib.  to forces
     atom    1 type  1   force =    -0.00288533    0.00500323    0.00003961
     atom    2 type  1   force =    -0.00288533   -0.00500323   -0.00003961
     atom    3 type  1   force =     0.00577436    0.00000000    0.00000000
     atom    4 type  2   force =     0.40142461   -0.74603978   -0.49126645
     atom    5 type  2   force =     0.44539971    0.72075863   -0.49131029
     atom    6 type  2   force =    -0.84678993    0.02540993   -0.49129937
     atom    7 type  2   force =     0.40142461    0.74603978    0.49126645
     atom    8 type  2   force =     0.44539971   -0.72075863    0.49131029
     atom    9 type  2   force =    -0.84678993   -0.02540993    0.49129937
     The ionic contribution  to forces
     atom    1 type  1   force =    -0.02624446    0.04549851   -0.00003980
     atom    2 type  1   force =    -0.02624446   -0.04549851    0.00003980
     atom    3 type  1   force =     0.05254218    0.00000000    0.00000000
     atom    4 type  2   force =    -2.01280941    2.87798355    1.63888123
     atom    5 type  2   force =    -1.48603190   -3.18215155    1.63886102
     atom    6 type  2   force =     3.49881469    0.30413529    1.63885390
     atom    7 type  2   force =    -2.01280941   -2.87798355   -1.63888123
     atom    8 type  2   force =    -1.48603190    3.18215155   -1.63886102
     atom    9 type  2   force =     3.49881469   -0.30413529   -1.63885390
     The local contribution  to forces
     atom    1 type  1   force =     0.02989979   -0.05180686    0.00001568
     atom    2 type  1   force =     0.02989979    0.05180686   -0.00001568
     atom    3 type  1   force =    -0.05983381   -0.00000000   -0.00000000
     atom    4 type  2   force =     1.60493415   -2.11905562   -1.14299688
     atom    5 type  2   force =     1.03272662    2.44933930   -1.14294716
     atom    6 type  2   force =    -2.63768026   -0.33046719   -1.14314097
     atom    7 type  2   force =     1.60493415    2.11905562    1.14299688
     atom    8 type  2   force =     1.03272662   -2.44933930    1.14294716
     atom    9 type  2   force =    -2.63768026    0.33046719    1.14314097
     The core correction contribution to forces
     atom    1 type  1   force =     0.00000000    0.00000000    0.00000000
     atom    2 type  1   force =     0.00000000    0.00000000    0.00000000
     atom    3 type  1   force =     0.00000000    0.00000000    0.00000000
     atom    4 type  2   force =     0.00000000    0.00000000    0.00000000
     atom    5 type  2   force =     0.00000000    0.00000000    0.00000000
     atom    6 type  2   force =     0.00000000    0.00000000    0.00000000
     atom    7 type  2   force =     0.00000000    0.00000000    0.00000000
     atom    8 type  2   force =     0.00000000    0.00000000    0.00000000
     atom    9 type  2   force =     0.00000000    0.00000000    0.00000000
     The Hubbard contrib.    to forces
     atom    1 type  1   force =     0.00000000    0.00000000    0.00000000
     atom    2 type  1   force =     0.00000000    0.00000000    0.00000000
     atom    3 type  1   force =     0.00000000    0.00000000    0.00000000
     atom    4 type  2   force =     0.00000000    0.00000000    0.00000000
     atom    5 type  2   force =     0.00000000    0.00000000    0.00000000
     atom    6 type  2   force =     0.00000000    0.00000000    0.00000000
     atom    7 type  2   force =     0.00000000    0.00000000    0.00000000
     atom    8 type  2   force =     0.00000000    0.00000000    0.00000000
     atom    9 type  2   force =     0.00000000    0.00000000    0.00000000
     The SCF correction term to forces
     atom    1 type  1   force =    -0.00000072   -0.00000171    0.00000183
     atom    2 type  1   force =    -0.00000072    0.00000171   -0.00000183
     atom    3 type  1   force =     0.00000210    0.00000000    0.00000000
     atom    4 type  2   force =    -0.00000076   -0.00000161   -0.00000021
     atom    5 type  2   force =     0.00000008   -0.00000077   -0.00000081
     atom    6 type  2   force =     0.00000105   -0.00000029   -0.00000136
     atom    7 type  2   force =    -0.00000076    0.00000161    0.00000021
     atom    8 type  2   force =     0.00000008    0.00000077    0.00000081
     atom    9 type  2   force =     0.00000105    0.00000029    0.00000136

     Total force =     0.037083     Total SCF correction =     0.000006


     Computing stress (Cartesian axis) and pressure

          total   stress  (Ry/bohr**3)                   (kbar)     P= -232.93
  -0.00158139   0.00000000   0.00000000       -232.63      0.00      0.00
   0.00000000  -0.00158261   0.00000016          0.00   -232.81      0.02
   0.00000000   0.00000016  -0.00158625          0.00      0.02   -233.34

     kinetic stress (kbar)  19071.35      0.00      0.00
                                0.00  19071.07      0.02
                                0.00      0.02  19040.75

     local   stress (kbar) -17365.68      0.00      0.00
                                0.00 -17365.55      0.03
                                0.00      0.03 -18602.51

     nonloc. stress (kbar)   5510.23      0.00      0.00
                                0.00   5510.24     -0.00
                                0.00     -0.00   5518.83

     hartree stress (kbar)   4856.44      0.00     -0.00
                                0.00   4856.42     -0.01
                               -0.00     -0.01   5295.60

     exc-cor stress (kbar)  -3090.98     -0.00      0.00
                               -0.00  -3090.98     -0.00
                                0.00     -0.00  -3090.07

     corecor stress (kbar)      0.00      0.00      0.00
                                0.00      0.00      0.00
                                0.00      0.00      0.00

     ewald   stress (kbar)  -9213.99     -0.00      0.00
                               -0.00  -9214.01     -0.02
                                0.00     -0.02  -8395.95

     hubbard stress (kbar)      0.00      0.00      0.00
                                0.00      0.00      0.00
                                0.00      0.00      0.00

     london  stress (kbar)      0.00      0.00      0.00
                                0.00      0.00      0.00
                                0.00      0.00      0.00

     DFT-D3  stress (kbar)      0.00      0.00      0.00
                                0.00      0.00      0.00
                                0.00      0.00      0.00

     XDM     stress (kbar)      0.00      0.00      0.00
                                0.00      0.00      0.00
                                0.00      0.00      0.00

     dft-nl  stress (kbar)      0.00      0.00      0.00
                                0.00      0.00      0.00
                                0.00      0.00      0.00

     TS-vdW  stress (kbar)      0.00      0.00      0.00
                                0.00      0.00      0.00
                                0.00      0.00      0.00



     Writing output data file quartz.save/
 
     init_run     :      1.60s CPU      1.84s WALL (       1 calls)
     electrons    :     16.89s CPU     21.55s WALL (       1 calls)
     forces       :      0.12s CPU      0.12s WALL (       1 calls)
     stress       :      0.26s CPU      0.26s WALL (       1 calls)

     Called by init_run:
     wfcinit      :      1.35s CPU      1.44s WALL (       1 calls)
     wfcinit:atom :      0.00s CPU      0.01s WALL (      10 calls)
     wfcinit:wfcr :      1.33s CPU      1.42s WALL (      10 calls)
     potinit      :      0.06s CPU      0.13s WALL (       1 calls)
     hinit0       :      0.13s CPU      0.22s WALL (       1 calls)

     Called by electrons:
     c_bands      :     14.42s CPU     18.11s WALL (       9 calls)
     sum_band     :      2.14s CPU      3.02s WALL (       9 calls)
     v_of_rho     :      0.15s CPU      0.19s WALL (      10 calls)
     v_h          :      0.01s CPU      0.01s WALL (      10 calls)
     v_xc         :      0.14s CPU      0.18s WALL (      10 calls)
     mix_rho      :      0.16s CPU      0.18s WALL (       9 calls)

     Called by c_bands:
     init_us_2    :      0.07s CPU      0.10s WALL (     210 calls)
     cegterg      :     14.22s CPU     17.85s WALL (      90 calls)

     Called by sum_band:

     Called by *egterg:
     h_psi        :     12.51s CPU     15.32s WALL (     300 calls)
     g_psi        :      0.03s CPU      0.05s WALL (     200 calls)
     cdiaghg      :      1.44s CPU      1.78s WALL (     290 calls)
     cegterg:over :      0.78s CPU      1.11s WALL (     200 calls)
     cegterg:upda :      0.06s CPU      0.14s WALL (     200 calls)
     cegterg:last :      0.04s CPU      0.06s WALL (     100 calls)

     Called by h_psi:
     h_psi:pot    :     12.47s CPU     15.26s WALL (     300 calls)
     h_psi:calbec :      0.30s CPU      0.40s WALL (     300 calls)
     vloc_psi     :     12.07s CPU     14.78s WALL (     300 calls)
     add_vuspsi   :      0.09s CPU      0.07s WALL (     300 calls)

     General routines
     calbec       :      0.36s CPU      0.47s WALL (     350 calls)
     fft          :      0.09s CPU      0.13s WALL (     108 calls)
     ffts         :      0.00s CPU      0.00s WALL (       9 calls)
     fftw         :     13.78s CPU     17.17s WALL (   16588 calls)
 
     Parallel routines
     fft_scatt_xy :      0.50s CPU      0.53s WALL (   16705 calls)
     fft_scatt_yz :     11.35s CPU     14.44s WALL (   16705 calls)
 
     PWSCF        :    19.18s CPU        24.19s WALL

 
   This run was terminated on:  14:17:14  28Jun2018            

=------------------------------------------------------------------------------=
   JOB DONE.
=------------------------------------------------------------------------------=
