
     Program PWSCF v.6.3rc starts on 28Jun2018 at 14:16:30 

     This program is part of the open-source Quantum ESPRESSO suite
     for quantum simulation of materials; please cite
         "P. Giannozzi et al., J. Phys.:Condens. Matter 21 395502 (2009);
         "P. Giannozzi et al., J. Phys.:Condens. Matter 29 465901 (2017);
          URL http://www.quantum-espresso.org", 
     in publications or presentations arising from this work. More details at
     http://www.quantum-espresso.org/quote

     Parallel version (MPI), running on     1 processors

     MPI processes distributed on     1 nodes
     Waiting for input...
     Reading input from standard input
     Message from routine read_cards :
     DEPRECATED: no units specified in CELL_PARAMETERS card

     Current dimensions of program PWSCF are:
     Max number of different atomic species (ntypx) = 10
     Max number of k-points (npk) =  40000
     Max angular momentum in pseudopotentials (lmaxx) =  3

     Subspace diagonalization in iterative solution of the eigenvalue problem:
     a serial algorithm will be used

 
     G-vector sticks info
     --------------------
     sticks:   dense  smooth     PW     G-vecs:    dense   smooth      PW
     Sum        1189    1189    361                36297    36297    6145
 


     bravais-lattice index     =            0
     lattice parameter (alat)  =       4.6415  a.u.
     unit-cell volume          =     762.0804 (a.u.)^3
     number of atoms/cell      =            9
     number of atomic types    =            2
     number of electrons       =        48.00
     number of Kohn-Sham states=           24
     kinetic-energy cutoff     =      50.0000  Ry
     charge density cutoff     =     200.0000  Ry
     convergence threshold     =      1.0E-10
     mixing beta               =       0.7000
     number of iterations used =            8  plain     mixing
     Exchange-correlation      =  SLA  PW   PBX  PBC ( 1  4  3  4 0 0)

     celldm(1)=   4.641538  celldm(2)=   0.000000  celldm(3)=   0.000000
     celldm(4)=   0.000000  celldm(5)=   0.000000  celldm(6)=   0.000000

     crystal axes: (cart. coord. in units of alat)
               a(1) = (   1.000000  -1.732058   0.000000 )  
               a(2) = (   1.000000   1.732058   0.000000 )  
               a(3) = (   0.000000   0.000000   2.200000 )  

     reciprocal axes: (cart. coord. in units 2 pi/alat)
               b(1) = (  0.500000 -0.288674  0.000000 )  
               b(2) = (  0.500000  0.288674  0.000000 )  
               b(3) = (  0.000000  0.000000  0.454545 )  


     PseudoPot. # 1 for Si read from file:
     ./pseudo/Si.pbe-tm-gipaw.UPF
     MD5 check sum: 744ed8b2dc623e0d56f5dfff7afbe95f
     Pseudo is Norm-conserving, Zval =  4.0
     Generated by new atomic code, or converted to UPF format
     Using radial grid of 1141 points,  2 beta functions with: 
                l(1) =   0
                l(2) =   1

     PseudoPot. # 2 for O  read from file:
     ./pseudo/O.pbe-tm-gipaw.UPF
     MD5 check sum: 12b6f10dd62b8d732352127d12073df4
     Pseudo is Norm-conserving, Zval =  6.0
     Generated by new atomic code, or converted to UPF format
     Using radial grid of 1095 points,  1 beta functions with: 
                l(1) =   0

     atomic species   valence    mass     pseudopotential
        Si             4.00    28.08600     Si( 1.00)
        O              6.00    15.99900     O ( 1.00)

      2 Sym. Ops. (no inversion) found


                                    s                        frac. trans.

      isym =  1     identity                                     

 cryst.   s( 1) = (     1          0          0      )
                  (     0          1          0      )
                  (     0          0          1      )

 cart.    s( 1) = (  1.0000000  0.0000000  0.0000000 )
                  (  0.0000000  1.0000000  0.0000000 )
                  (  0.0000000  0.0000000  1.0000000 )


      isym =  2     180 deg rotation - cart. axis [1,0,0]        

 cryst.   s( 2) = (     0          1          0      )
                  (     1          0          0      )
                  (     0          0         -1      )

 cart.    s( 2) = (  1.0000000  0.0000000  0.0000000 )
                  (  0.0000000 -1.0000000  0.0000000 )
                  (  0.0000000  0.0000000 -1.0000000 )


   Cartesian axes

     site n.     atom                  positions (alat units)
         1           Si  tau(   1) = (   0.4701000  -0.8142405   0.7333333  )
         2           Si  tau(   2) = (   0.4701000   0.8142405   1.4666667  )
         3           Si  tau(   3) = (  -0.9402000   0.0000000   0.0000000  )
         4           O   tau(   4) = (   0.6813000  -0.2537465   0.4716800  )
         5           O   tau(   5) = (  -0.1209000   0.7168988   1.2050133  )
         6           O   tau(   6) = (  -0.5604000  -0.4631523   1.9383467  )
         7           O   tau(   7) = (   0.6813000   0.2537465  -0.4716800  )
         8           O   tau(   8) = (  -0.1209000  -0.7168988   0.9949867  )
         9           O   tau(   9) = (  -0.5604000   0.4631523   0.2616533  )

   Crystallographic axes

     site n.     atom                  positions (cryst. coord.)
         1           Si  tau(   1) = (  0.4701000  0.0000000  0.3333333  )
         2           Si  tau(   2) = (  0.0000000  0.4701000  0.6666667  )
         3           Si  tau(   3) = ( -0.4701000 -0.4701000  0.0000000  )
         4           O   tau(   4) = (  0.4139000  0.2674000  0.2144000  )
         5           O   tau(   5) = ( -0.2674000  0.1465000  0.5477333  )
         6           O   tau(   6) = ( -0.1465000 -0.4139000  0.8810667  )
         7           O   tau(   7) = (  0.2674000  0.4139000 -0.2144000  )
         8           O   tau(   8) = (  0.1465000 -0.2674000  0.4522667  )
         9           O   tau(   9) = ( -0.4139000 -0.1465000  0.1189333  )

     number of k points=    10
                       cart. coord. in units 2pi/alat
        k(    1) = (   0.1666667   0.0000000   0.0757576), wk =   0.2962963
        k(    2) = (   0.1666667   0.0000000  -0.2272727), wk =   0.1481481
        k(    3) = (  -0.1666667  -0.1924493   0.0757576), wk =   0.2962963
        k(    4) = (  -0.1666667  -0.1924493  -0.2272727), wk =   0.2962963
        k(    5) = (  -0.0000000  -0.0962246   0.0757576), wk =   0.1481481
        k(    6) = (  -0.0000000  -0.0962246  -0.2272727), wk =   0.1481481
        k(    7) = (  -0.5000000   0.0000000   0.0757576), wk =   0.1481481
        k(    8) = (  -0.5000000   0.0000000  -0.2272727), wk =   0.0740741
        k(    9) = (   0.1666667  -0.1924493  -0.0757576), wk =   0.2962963
        k(   10) = (   0.0000000  -0.0962246  -0.0757576), wk =   0.1481481

                       cryst. coord.
        k(    1) = (   0.1666667   0.1666667   0.1666667), wk =   0.2962963
        k(    2) = (   0.1666667   0.1666667  -0.5000000), wk =   0.1481481
        k(    3) = (   0.1666667  -0.5000000   0.1666667), wk =   0.2962963
        k(    4) = (   0.1666667  -0.5000000  -0.5000000), wk =   0.2962963
        k(    5) = (   0.1666667  -0.1666667   0.1666667), wk =   0.1481481
        k(    6) = (   0.1666667  -0.1666667  -0.5000000), wk =   0.1481481
        k(    7) = (  -0.5000000  -0.5000000   0.1666667), wk =   0.1481481
        k(    8) = (  -0.5000000  -0.5000000  -0.5000000), wk =   0.0740741
        k(    9) = (   0.5000000  -0.1666667  -0.1666667), wk =   0.2962963
        k(   10) = (   0.1666667  -0.1666667  -0.1666667), wk =   0.1481481

     Dense  grid:    36297 G-vectors     FFT dimensions: (  45,  45,  45)

     Dynamical RAM for                 wfc:       1.67 MB

     Dynamical RAM for     wfc (w. buffer):      18.33 MB

     Dynamical RAM for           str. fact:       1.11 MB

     Dynamical RAM for           local pot:       0.00 MB

     Dynamical RAM for          nlocal pot:       1.25 MB

     Dynamical RAM for                qrad:       0.14 MB

     Dynamical RAM for          rho,v,vnew:       3.75 MB

     Dynamical RAM for               rhoin:       1.25 MB

     Dynamical RAM for            rho*nmix:       8.86 MB

     Dynamical RAM for           G-vectors:       2.35 MB

     Dynamical RAM for          h,s,v(r/c):       0.42 MB

     Dynamical RAM for          <psi|beta>:       0.01 MB

     Dynamical RAM for                 psi:       6.67 MB

     Dynamical RAM for                hpsi:       6.67 MB

     Dynamical RAM for      wfcinit/wfcrot:       7.14 MB

     Estimated static dynamical RAM per process >      42.18 MB

     Estimated max dynamical RAM per process >      55.94 MB

     Initial potential from superposition of free atoms

     starting charge   40.41467, renormalised to   48.00000
     Starting wfcs are   51 randomized atomic wfcs

     total cpu time spent up to now is        2.0 secs

     Self-consistent Calculation

     iteration #  1     ecut=    50.00 Ry     beta= 0.70
     Davidson diagonalization with overlap
     ethr =  1.00E-04,  avg # of iterations =  4.0

     total cpu time spent up to now is        4.4 secs

     total energy              =    -216.22170666 Ry
     Harris-Foulkes estimate   =    -216.38904835 Ry
     estimated scf accuracy    <       0.47153445 Ry

     iteration #  2     ecut=    50.00 Ry     beta= 0.70
     Davidson diagonalization with overlap
     ethr =  9.82E-04,  avg # of iterations =  2.0

     total cpu time spent up to now is        6.2 secs

     total energy              =    -216.27797914 Ry
     Harris-Foulkes estimate   =    -216.32732783 Ry
     estimated scf accuracy    <       0.10550246 Ry

     iteration #  3     ecut=    50.00 Ry     beta= 0.70
     Davidson diagonalization with overlap
     ethr =  2.20E-04,  avg # of iterations =  2.0

     total cpu time spent up to now is        7.9 secs

     total energy              =    -216.30283118 Ry
     Harris-Foulkes estimate   =    -216.30665980 Ry
     estimated scf accuracy    <       0.01328954 Ry

     iteration #  4     ecut=    50.00 Ry     beta= 0.70
     Davidson diagonalization with overlap
     ethr =  2.77E-05,  avg # of iterations =  2.0

     total cpu time spent up to now is        9.4 secs

     total energy              =    -216.30518637 Ry
     Harris-Foulkes estimate   =    -216.30514758 Ry
     estimated scf accuracy    <       0.00009598 Ry

     iteration #  5     ecut=    50.00 Ry     beta= 0.70
     Davidson diagonalization with overlap
     ethr =  2.00E-07,  avg # of iterations =  2.0

     total cpu time spent up to now is       11.1 secs

     total energy              =    -216.30522471 Ry
     Harris-Foulkes estimate   =    -216.30522179 Ry
     estimated scf accuracy    <       0.00000445 Ry

     iteration #  6     ecut=    50.00 Ry     beta= 0.70
     Davidson diagonalization with overlap
     ethr =  9.27E-09,  avg # of iterations =  2.0

     total cpu time spent up to now is       12.6 secs

     total energy              =    -216.30522579 Ry
     Harris-Foulkes estimate   =    -216.30522540 Ry
     estimated scf accuracy    <       0.00000046 Ry

     iteration #  7     ecut=    50.00 Ry     beta= 0.70
     Davidson diagonalization with overlap
     ethr =  9.53E-10,  avg # of iterations =  2.0

     total cpu time spent up to now is       14.3 secs

     total energy              =    -216.30522592 Ry
     Harris-Foulkes estimate   =    -216.30522593 Ry
     estimated scf accuracy    <       0.00000003 Ry

     iteration #  8     ecut=    50.00 Ry     beta= 0.70
     Davidson diagonalization with overlap
     ethr =  7.01E-11,  avg # of iterations =  2.0

     total cpu time spent up to now is       15.9 secs

     total energy              =    -216.30522592 Ry
     Harris-Foulkes estimate   =    -216.30522592 Ry
     estimated scf accuracy    <          8.1E-10 Ry

     iteration #  9     ecut=    50.00 Ry     beta= 0.70
     Davidson diagonalization with overlap
     ethr =  1.70E-12,  avg # of iterations =  2.0

     total cpu time spent up to now is       17.5 secs

     End of self-consistent calculation

          k = 0.1667 0.0000 0.0758 (  4553 PWs)   bands (ev):

   -16.5038 -15.6490 -15.1061 -14.6169 -14.5866 -14.5511  -5.8909  -4.8712
    -3.3025  -2.8283  -2.5869  -2.3203  -0.5537  -0.1424   0.0280   0.2840
     0.5807   1.0200   1.1187   1.4017   1.6743   1.8251   2.2575   2.5520

     occupation numbers 
     1.0000   1.0000   1.0000   1.0000   1.0000   1.0000   1.0000   1.0000
     1.0000   1.0000   1.0000   1.0000   1.0000   1.0000   1.0000   1.0000
     1.0000   1.0000   1.0000   1.0000   1.0000   1.0000   1.0000   1.0000

          k = 0.1667 0.0000-0.2273 (  4560 PWs)   bands (ev):

   -16.2518 -16.0650 -14.9422 -14.6261 -14.5722 -14.5576  -6.1522  -4.1632
    -3.7995  -2.7561  -2.6978  -2.2217  -0.4747  -0.3966   0.2079   0.2640
     0.5917   1.0317   1.1822   1.3874   1.5478   2.0768   2.2320   2.3884

     occupation numbers 
     1.0000   1.0000   1.0000   1.0000   1.0000   1.0000   1.0000   1.0000
     1.0000   1.0000   1.0000   1.0000   1.0000   1.0000   1.0000   1.0000
     1.0000   1.0000   1.0000   1.0000   1.0000   1.0000   1.0000   1.0000

          k =-0.1667-0.1924 0.0758 (  4545 PWs)   bands (ev):

   -16.2776 -15.7810 -15.2252 -14.6300 -14.6062 -14.5650  -5.7528  -4.6517
    -3.6131  -2.8188  -2.5879  -2.1124  -0.4992  -0.2804  -0.0965   0.3355
     0.6159   0.8448   1.1728   1.3253   1.5869   1.9760   2.2087   2.5518

     occupation numbers 
     1.0000   1.0000   1.0000   1.0000   1.0000   1.0000   1.0000   1.0000
     1.0000   1.0000   1.0000   1.0000   1.0000   1.0000   1.0000   1.0000
     1.0000   1.0000   1.0000   1.0000   1.0000   1.0000   1.0000   1.0000

          k =-0.1667-0.1924-0.2273 (  4544 PWs)   bands (ev):

   -16.2106 -15.7984 -15.2783 -14.6561 -14.5859 -14.5777  -5.6105  -4.6148
    -3.8671  -2.6617  -2.5107  -2.3458  -0.6265  -0.4473   0.0820   0.4551
     0.6215   0.9361   1.4438   1.5295   1.6880   1.8700   2.0346   2.3013

     occupation numbers 
     1.0000   1.0000   1.0000   1.0000   1.0000   1.0000   1.0000   1.0000
     1.0000   1.0000   1.0000   1.0000   1.0000   1.0000   1.0000   1.0000
     1.0000   1.0000   1.0000   1.0000   1.0000   1.0000   1.0000   1.0000

          k =-0.0000-0.0962 0.0758 (  4560 PWs)   bands (ev):

   -16.6504 -15.6152 -14.9724 -14.5970 -14.5688 -14.5365  -6.0705  -4.9420
    -3.0956  -2.8507  -2.6519  -2.4320  -0.5086  -0.1425  -0.0001   0.3619
     0.7425   1.0444   1.1156   1.3358   1.6814   1.9053   2.2766   2.5201

     occupation numbers 
     1.0000   1.0000   1.0000   1.0000   1.0000   1.0000   1.0000   1.0000
     1.0000   1.0000   1.0000   1.0000   1.0000   1.0000   1.0000   1.0000
     1.0000   1.0000   1.0000   1.0000   1.0000   1.0000   1.0000   1.0000

          k =-0.0000-0.0962-0.2273 (  4538 PWs)   bands (ev):

   -16.2894 -16.2252 -14.7071 -14.6011 -14.5665 -14.5303  -6.5149  -3.8666
    -3.7062  -2.9068  -2.8587  -2.1175  -0.2633  -0.2468   0.0654   0.4579
     0.5314   0.9417   1.0117   1.2046   1.4676   2.2912   2.3213   2.4942

     occupation numbers 
     1.0000   1.0000   1.0000   1.0000   1.0000   1.0000   1.0000   1.0000
     1.0000   1.0000   1.0000   1.0000   1.0000   1.0000   1.0000   1.0000
     1.0000   1.0000   1.0000   1.0000   1.0000   1.0000   1.0000   1.0000

          k =-0.5000 0.0000 0.0758 (  4540 PWs)   bands (ev):

   -16.2721 -15.7959 -15.2120 -14.6347 -14.6027 -14.5672  -5.7378  -4.7381
    -3.4591  -2.8408  -2.6364  -2.1130  -0.4944  -0.3810   0.0376   0.2614
     0.6749   0.7996   1.0717   1.4545   1.6590   1.8470   2.2720   2.5411

     occupation numbers 
     1.0000   1.0000   1.0000   1.0000   1.0000   1.0000   1.0000   1.0000
     1.0000   1.0000   1.0000   1.0000   1.0000   1.0000   1.0000   1.0000
     1.0000   1.0000   1.0000   1.0000   1.0000   1.0000   1.0000   1.0000

          k =-0.5000 0.0000-0.2273 (  4536 PWs)   bands (ev):

   -16.2180 -15.7699 -15.3124 -14.6611 -14.5831 -14.5616  -5.6209  -4.6487
    -3.7853  -2.7272  -2.4557  -2.3449  -0.5930  -0.5738   0.1769   0.5085
     0.5213   1.0675   1.3497   1.4698   1.7302   1.7818   2.0215   2.4226

     occupation numbers 
     1.0000   1.0000   1.0000   1.0000   1.0000   1.0000   1.0000   1.0000
     1.0000   1.0000   1.0000   1.0000   1.0000   1.0000   1.0000   1.0000
     1.0000   1.0000   1.0000   1.0000   1.0000   1.0000   1.0000   1.0000

          k = 0.1667-0.1924-0.0758 (  4545 PWs)   bands (ev):

   -16.2753 -15.7893 -15.2146 -14.6336 -14.6082 -14.5640  -5.7523  -4.6499
    -3.6136  -2.8097  -2.5935  -2.1269  -0.5384  -0.2565  -0.0747   0.3972
     0.6011   0.8389   1.0723   1.3739   1.6281   1.9089   2.2807   2.5206

     occupation numbers 
     1.0000   1.0000   1.0000   1.0000   1.0000   1.0000   1.0000   1.0000
     1.0000   1.0000   1.0000   1.0000   1.0000   1.0000   1.0000   1.0000
     1.0000   1.0000   1.0000   1.0000   1.0000   1.0000   1.0000   1.0000

          k = 0.0000-0.0962-0.0758 (  4560 PWs)   bands (ev):

   -16.6508 -15.6109 -14.9827 -14.5970 -14.5569 -14.5419  -6.0709  -4.9417
    -3.1006  -2.8512  -2.6686  -2.4037  -0.4808  -0.1678   0.0058   0.3218
     0.6981   1.1153   1.1385   1.3133   1.7225   1.8600   2.2533   2.5466

     occupation numbers 
     1.0000   1.0000   1.0000   1.0000   1.0000   1.0000   1.0000   1.0000
     1.0000   1.0000   1.0000   1.0000   1.0000   1.0000   1.0000   1.0000
     1.0000   1.0000   1.0000   1.0000   1.0000   1.0000   1.0000   1.0000

     highest occupied level (ev):     2.5520

!    total energy              =    -216.30522592 Ry
     Harris-Foulkes estimate   =    -216.30522592 Ry
     estimated scf accuracy    <          7.3E-11 Ry

     The total energy is the sum of the following terms:

     one-electron contribution =    -104.22894122 Ry
     hartree contribution      =      77.75156234 Ry
     xc contribution           =     -50.86588259 Ry
     ewald contribution        =    -138.96196445 Ry

     convergence has been achieved in   9 iterations

     Forces acting on atoms (cartesian axes, Ry/au):

     atom    1 type  1   force =     0.00076949   -0.00130728    0.00001735
     atom    2 type  1   force =     0.00076949    0.00130728   -0.00001735
     atom    3 type  1   force =    -0.00151422    0.00000000    0.00000000
     atom    4 type  2   force =    -0.00645286    0.01288729    0.00461761
     atom    5 type  2   force =    -0.00790535   -0.01205458    0.00460255
     atom    6 type  2   force =     0.01434584   -0.00092185    0.00441201
     atom    7 type  2   force =    -0.00645286   -0.01288729   -0.00461761
     atom    8 type  2   force =    -0.00790535    0.01205458   -0.00460255
     atom    9 type  2   force =     0.01434584    0.00092185   -0.00441201
     The non-local contrib.  to forces
     atom    1 type  1   force =    -0.00288641    0.00500075    0.00003999
     atom    2 type  1   force =    -0.00288641   -0.00500075   -0.00003999
     atom    3 type  1   force =     0.00577779    0.00000000    0.00000000
     atom    4 type  2   force =     0.40142522   -0.74604014   -0.49126514
     atom    5 type  2   force =     0.44539910    0.72075935   -0.49131002
     atom    6 type  2   force =    -0.84678958    0.02541049   -0.49129959
     atom    7 type  2   force =     0.40142522    0.74604014    0.49126514
     atom    8 type  2   force =     0.44539910   -0.72075935    0.49131002
     atom    9 type  2   force =    -0.84678958   -0.02541049    0.49129959
     The ionic contribution  to forces
     atom    1 type  1   force =    -0.02624446    0.04549851   -0.00003980
     atom    2 type  1   force =    -0.02624446   -0.04549851    0.00003980
     atom    3 type  1   force =     0.05254218    0.00000000    0.00000000
     atom    4 type  2   force =    -2.01280941    2.87798355    1.63888123
     atom    5 type  2   force =    -1.48603190   -3.18215155    1.63886102
     atom    6 type  2   force =     3.49881469    0.30413529    1.63885390
     atom    7 type  2   force =    -2.01280941   -2.87798355   -1.63888123
     atom    8 type  2   force =    -1.48603190    3.18215155   -1.63886102
     atom    9 type  2   force =     3.49881469   -0.30413529   -1.63885390
     The local contribution  to forces
     atom    1 type  1   force =     0.02990006   -0.05180818    0.00001517
     atom    2 type  1   force =     0.02990006    0.05180818   -0.00001517
     atom    3 type  1   force =    -0.05983173    0.00000000   -0.00000000
     atom    4 type  2   force =     1.60493138   -2.11905616   -1.14300037
     atom    5 type  2   force =     1.03272690    2.44933715   -1.14294857
     atom    6 type  2   force =    -2.63767847   -0.33046681   -1.14314073
     atom    7 type  2   force =     1.60493138    2.11905616    1.14300037
     atom    8 type  2   force =     1.03272690   -2.44933715    1.14294857
     atom    9 type  2   force =    -2.63767847    0.33046681    1.14314073
     The core correction contribution to forces
     atom    1 type  1   force =     0.00000000    0.00000000    0.00000000
     atom    2 type  1   force =     0.00000000    0.00000000    0.00000000
     atom    3 type  1   force =     0.00000000    0.00000000    0.00000000
     atom    4 type  2   force =     0.00000000    0.00000000    0.00000000
     atom    5 type  2   force =     0.00000000    0.00000000    0.00000000
     atom    6 type  2   force =     0.00000000    0.00000000    0.00000000
     atom    7 type  2   force =     0.00000000    0.00000000    0.00000000
     atom    8 type  2   force =     0.00000000    0.00000000    0.00000000
     atom    9 type  2   force =     0.00000000    0.00000000    0.00000000
     The Hubbard contrib.    to forces
     atom    1 type  1   force =     0.00000000    0.00000000    0.00000000
     atom    2 type  1   force =     0.00000000    0.00000000    0.00000000
     atom    3 type  1   force =     0.00000000    0.00000000    0.00000000
     atom    4 type  2   force =     0.00000000    0.00000000    0.00000000
     atom    5 type  2   force =     0.00000000    0.00000000    0.00000000
     atom    6 type  2   force =     0.00000000    0.00000000    0.00000000
     atom    7 type  2   force =     0.00000000    0.00000000    0.00000000
     atom    8 type  2   force =     0.00000000    0.00000000    0.00000000
     atom    9 type  2   force =     0.00000000    0.00000000    0.00000000
     The SCF correction term to forces
     atom    1 type  1   force =     0.00000001    0.00000165    0.00000197
     atom    2 type  1   force =     0.00000001   -0.00000165   -0.00000197
     atom    3 type  1   force =    -0.00000274    0.00000000   -0.00000000
     atom    4 type  2   force =    -0.00000033    0.00000004    0.00000188
     atom    5 type  2   force =     0.00000026    0.00000048    0.00000013
     atom    6 type  2   force =    -0.00000108   -0.00000082   -0.00000156
     atom    7 type  2   force =    -0.00000033   -0.00000004   -0.00000188
     atom    8 type  2   force =     0.00000026   -0.00000048   -0.00000013
     atom    9 type  2   force =    -0.00000108    0.00000082    0.00000156

     Total force =     0.037084     Total SCF correction =     0.000006


     Computing stress (Cartesian axis) and pressure

          total   stress  (Ry/bohr**3)                   (kbar)     P= -232.93
  -0.00158142   0.00000000   0.00000000       -232.63      0.00      0.00
   0.00000000  -0.00158263   0.00000014          0.00   -232.81      0.02
   0.00000000   0.00000014  -0.00158626          0.00      0.02   -233.35

     kinetic stress (kbar)  19071.34      0.00      0.00
                                0.00  19071.07      0.02
                                0.00      0.02  19040.75

     local   stress (kbar) -17365.68      0.00     -0.00
                                0.00 -17365.55      0.03
                               -0.00      0.03 -18602.51

     nonloc. stress (kbar)   5510.23      0.00      0.00
                                0.00   5510.24     -0.00
                                0.00     -0.00   5518.83

     hartree stress (kbar)   4856.44     -0.00      0.00
                               -0.00   4856.42     -0.01
                                0.00     -0.01   5295.59

     exc-cor stress (kbar)  -3090.98     -0.00      0.00
                               -0.00  -3090.98     -0.00
                                0.00     -0.00  -3090.07

     corecor stress (kbar)      0.00      0.00      0.00
                                0.00      0.00      0.00
                                0.00      0.00      0.00

     ewald   stress (kbar)  -9213.99     -0.00      0.00
                               -0.00  -9214.01     -0.02
                                0.00     -0.02  -8395.95

     hubbard stress (kbar)      0.00      0.00      0.00
                                0.00      0.00      0.00
                                0.00      0.00      0.00

     london  stress (kbar)      0.00      0.00      0.00
                                0.00      0.00      0.00
                                0.00      0.00      0.00

     DFT-D3  stress (kbar)      0.00      0.00      0.00
                                0.00      0.00      0.00
                                0.00      0.00      0.00

     XDM     stress (kbar)      0.00      0.00      0.00
                                0.00      0.00      0.00
                                0.00      0.00      0.00

     dft-nl  stress (kbar)      0.00      0.00      0.00
                                0.00      0.00      0.00
                                0.00      0.00      0.00

     TS-vdW  stress (kbar)      0.00      0.00      0.00
                                0.00      0.00      0.00
                                0.00      0.00      0.00



     Writing output data file quartz.save/
 
     init_run     :      1.24s CPU      1.74s WALL (       1 calls)
     electrons    :     15.21s CPU     15.50s WALL (       1 calls)
     forces       :      0.12s CPU      0.12s WALL (       1 calls)
     stress       :      0.36s CPU      0.35s WALL (       1 calls)

     Called by init_run:
     wfcinit      :      1.00s CPU      1.29s WALL (       1 calls)
     wfcinit:atom :      0.02s CPU      0.02s WALL (      10 calls)
     wfcinit:wfcr :      0.90s CPU      1.19s WALL (      10 calls)
     potinit      :      0.10s CPU      0.12s WALL (       1 calls)
     hinit0       :      0.13s CPU      0.33s WALL (       1 calls)

     Called by electrons:
     c_bands      :     12.92s CPU     13.12s WALL (       9 calls)
     sum_band     :      1.99s CPU      1.99s WALL (       9 calls)
     v_of_rho     :      0.29s CPU      0.28s WALL (      10 calls)
     v_h          :      0.02s CPU      0.01s WALL (      10 calls)
     v_xc         :      0.27s CPU      0.27s WALL (      10 calls)
     mix_rho      :      0.04s CPU      0.13s WALL (       9 calls)

     Called by c_bands:
     init_us_2    :      0.31s CPU      0.33s WALL (     210 calls)
     cegterg      :     12.69s CPU     12.87s WALL (      90 calls)

     Called by sum_band:

     Called by *egterg:
     h_psi        :     11.80s CPU     12.01s WALL (     300 calls)
     g_psi        :      0.13s CPU      0.12s WALL (     200 calls)
     cdiaghg      :      0.21s CPU      0.48s WALL (     290 calls)
     cegterg:over :      0.56s CPU      0.54s WALL (     200 calls)
     cegterg:upda :      0.39s CPU      0.40s WALL (     200 calls)
     cegterg:last :      0.20s CPU      0.21s WALL (     100 calls)

     Called by h_psi:
     h_psi:pot    :     11.72s CPU     11.88s WALL (     300 calls)
     h_psi:calbec :      0.16s CPU      0.23s WALL (     300 calls)
     vloc_psi     :     11.33s CPU     11.42s WALL (     300 calls)
     add_vuspsi   :      0.23s CPU      0.23s WALL (     300 calls)

     General routines
     calbec       :      0.15s CPU      0.25s WALL (     350 calls)
     fft          :      0.10s CPU      0.30s WALL (     108 calls)
     ffts         :      0.00s CPU      0.01s WALL (       9 calls)
     fftw         :     11.72s CPU     11.82s WALL (   16572 calls)
 
     Parallel routines
 
     PWSCF        :    16.96s CPU        17.98s WALL

 
   This run was terminated on:  14:16:48  28Jun2018            

=------------------------------------------------------------------------------=
   JOB DONE.
=------------------------------------------------------------------------------=
